
     Program NEB v.7.2 starts on  6Nov2024 at 22:20:39 

     This program is part of the open-source Quantum ESPRESSO suite
     for quantum simulation of materials; please cite
         "P. Giannozzi et al., J. Phys.:Condens. Matter 21 395502 (2009);
         "P. Giannozzi et al., J. Phys.:Condens. Matter 29 465901 (2017);
         "P. Giannozzi et al., J. Chem. Phys. 152 154105 (2020);
          URL http://www.quantum-espresso.org", 
     in publications or presentations arising from this work. More details at
     http://www.quantum-espresso.org/quote

     Parallel version (MPI), running on    96 processors

     MPI processes distributed on     2 nodes
     152857 MiB available memory on the printing compute node when the environment starts
 

     Parsing file: neb.in
     Reading input from pw_1.in
Warning: card &CELL ignored
Warning: card   CELL_DYNAMICS='BFGS', ignored
Warning: card   PRESS=0.0, ignored
Warning: card   PRESS_CONV_THR=0.5, ignored
Warning: card / ignored
     Reading input from pw_2.in
Warning: card &CELL ignored
Warning: card   CELL_DYNAMICS='BFGS', ignored
Warning: card   PRESS=0.0, ignored
Warning: card   PRESS_CONV_THR=0.5, ignored
Warning: card / ignored

     initial path length           =  5.4723 bohr
     initial inter-image distance  =  1.3681 bohr
 
     string_method                 =    neb
     restart_mode                  =    from_scratch
     opt_scheme                    =    broyden
     num_of_images                 =    5
     nstep_path                    =    1000
     CI_scheme                     =    no-CI
     first_last_opt                =    T
     use_freezing                  =    F
     ds                            =    0.0756 a.u.
     k_max                         =    0.1000 a.u.
     k_min                         =    0.0050 a.u.
     suggested k_max               =  107.9285 a.u.
     suggested k_min               =    5.3964 a.u.
     path_thr                      =    0.0010 eV / A

     ------------------------------ iteration   1 ------------------------------

     tcpu =      0.5    self-consistency for image   1
     Message from routine setup:
     using ibrav=0 with symmetry is DISCOURAGED, use correct ibrav instead
     tcpu =     48.4    self-consistency for image   2
     Message from routine setup:
     using ibrav=0 with symmetry is DISCOURAGED, use correct ibrav instead
     tcpu =     99.3    self-consistency for image   3
     Message from routine setup:
     using ibrav=0 with symmetry is DISCOURAGED, use correct ibrav instead
     tcpu =    150.5    self-consistency for image   4
     Message from routine setup:
     using ibrav=0 with symmetry is DISCOURAGED, use correct ibrav instead
     tcpu =    193.5    self-consistency for image   5
     Message from routine setup:
     using ibrav=0 with symmetry is DISCOURAGED, use correct ibrav instead

     activation energy (->) =   2.337864 eV
     activation energy (<-) =   1.206830 eV

     image        energy (eV)        error (eV/A)        frozen

         1    -133596.3164592            0.688936            F
         2    -133595.6760988            1.388511            F
         3    -133593.9785955            2.559052            F
         4    -133594.3208702            1.940343            F
         5    -133595.1854252            0.700971            F

     path length          =  5.472 bohr
     inter-image distance =  1.368 bohr

     ------------------------------ iteration   2 ------------------------------

     tcpu =    240.3    self-consistency for image   1
     Message from routine setup:
     using ibrav=0 with symmetry is DISCOURAGED, use correct ibrav instead
     tcpu =    256.6    self-consistency for image   2
     Message from routine setup:
     using ibrav=0 with symmetry is DISCOURAGED, use correct ibrav instead
     tcpu =    274.6    self-consistency for image   3
     Message from routine setup:
     using ibrav=0 with symmetry is DISCOURAGED, use correct ibrav instead
     tcpu =    291.2    self-consistency for image   4
     Message from routine setup:
     using ibrav=0 with symmetry is DISCOURAGED, use correct ibrav instead
     tcpu =    308.6    self-consistency for image   5
     Message from routine setup:
     using ibrav=0 with symmetry is DISCOURAGED, use correct ibrav instead

     activation energy (->) =   2.336858 eV
     activation energy (<-) =   1.205802 eV

     image        energy (eV)        error (eV/A)        frozen

         1    -133596.3170933            0.684767            F
         2    -133595.6766525            1.387973            F
         3    -133593.9802350            2.538502            F
         4    -133594.3223344            1.925462            F
         5    -133595.1860366            0.698611            F

     path length          =  5.472 bohr
     inter-image distance =  1.368 bohr

     ------------------------------ iteration   3 ------------------------------

     tcpu =    325.8    self-consistency for image   1
     Message from routine setup:
     using ibrav=0 with symmetry is DISCOURAGED, use correct ibrav instead
     tcpu =    342.1    self-consistency for image   2
     Message from routine setup:
     using ibrav=0 with symmetry is DISCOURAGED, use correct ibrav instead
     tcpu =    359.3    self-consistency for image   3
     Message from routine setup:
     using ibrav=0 with symmetry is DISCOURAGED, use correct ibrav instead
     tcpu =    376.1    self-consistency for image   4
     Message from routine setup:
     using ibrav=0 with symmetry is DISCOURAGED, use correct ibrav instead
     tcpu =    393.6    self-consistency for image   5
     Message from routine setup:
     using ibrav=0 with symmetry is DISCOURAGED, use correct ibrav instead

     activation energy (->) =   2.335856 eV
     activation energy (<-) =   1.204775 eV

     image        energy (eV)        error (eV/A)        frozen

         1    -133596.3177231            0.681703            F
         2    -133595.6771992            1.387479            F
         3    -133593.9818670            2.536519            F
         4    -133594.3237804            1.922251            F
         5    -133595.1866425            0.693913            F

     path length          =  5.472 bohr
     inter-image distance =  1.368 bohr

     ------------------------------ iteration   4 ------------------------------

     tcpu =    409.2    self-consistency for image   1
     Message from routine setup:
     using ibrav=0 with symmetry is DISCOURAGED, use correct ibrav instead
     tcpu =    426.1    self-consistency for image   2
     Message from routine setup:
     using ibrav=0 with symmetry is DISCOURAGED, use correct ibrav instead
     tcpu =    443.0    self-consistency for image   3
     Message from routine setup:
     using ibrav=0 with symmetry is DISCOURAGED, use correct ibrav instead
     tcpu =    459.6    self-consistency for image   4
     Message from routine setup:
     using ibrav=0 with symmetry is DISCOURAGED, use correct ibrav instead
     tcpu =    477.5    self-consistency for image   5
     Message from routine setup:
     using ibrav=0 with symmetry is DISCOURAGED, use correct ibrav instead

     activation energy (->) =   2.333887 eV
     activation energy (<-) =   1.202757 eV

     image        energy (eV)        error (eV/A)        frozen

         1    -133596.3189722            0.674944            F
         2    -133595.6782853            1.386136            F
         3    -133593.9850853            2.510565            F
         4    -133594.3266397            1.902668            F
         5    -133595.1878425            0.687214            F

     path length          =  5.472 bohr
     inter-image distance =  1.368 bohr

     ------------------------------ iteration   5 ------------------------------

     tcpu =    493.6    self-consistency for image   1
     Message from routine setup:
     using ibrav=0 with symmetry is DISCOURAGED, use correct ibrav instead
     tcpu =    514.8    self-consistency for image   2
     Message from routine setup:
     using ibrav=0 with symmetry is DISCOURAGED, use correct ibrav instead
     tcpu =    531.2    self-consistency for image   3
     Message from routine setup:
     using ibrav=0 with symmetry is DISCOURAGED, use correct ibrav instead
     tcpu =    553.2    self-consistency for image   4
     Message from routine setup:
     using ibrav=0 with symmetry is DISCOURAGED, use correct ibrav instead
     tcpu =    578.9    self-consistency for image   5
     Message from routine setup:
     using ibrav=0 with symmetry is DISCOURAGED, use correct ibrav instead

     activation energy (->) =   2.327919 eV
     activation energy (<-) =   1.196638 eV

     image        energy (eV)        error (eV/A)        frozen

         1    -133596.3226801            0.684798            F
         2    -133595.6814913            1.381385            F
         3    -133593.9947613            2.536392            F
         4    -133594.3351889            1.923169            F
         5    -133595.1913990            0.699105            F

     path length          =  5.472 bohr
     inter-image distance =  1.368 bohr

     ------------------------------ iteration   6 ------------------------------

     tcpu =    601.5    self-consistency for image   1
     Message from routine setup:
     using ibrav=0 with symmetry is DISCOURAGED, use correct ibrav instead
     tcpu =    626.2    self-consistency for image   2
     Message from routine setup:
     using ibrav=0 with symmetry is DISCOURAGED, use correct ibrav instead
     tcpu =    653.8    self-consistency for image   3
     Message from routine setup:
     using ibrav=0 with symmetry is DISCOURAGED, use correct ibrav instead
     tcpu =    686.8    self-consistency for image   4
     Message from routine setup:
     using ibrav=0 with symmetry is DISCOURAGED, use correct ibrav instead
     tcpu =    722.8    self-consistency for image   5
     Message from routine setup:
     using ibrav=0 with symmetry is DISCOURAGED, use correct ibrav instead

     activation energy (->) =   2.304536 eV
     activation energy (<-) =   1.172711 eV

     image        energy (eV)        error (eV/A)        frozen

         1    -133596.3373753            0.676642            F
         2    -133595.6942278            1.380048            F
         3    -133594.0328389            2.477786            F
         4    -133594.3689690            1.881648            F
         5    -133595.2055497            0.695200            F

     path length          =  5.472 bohr
     inter-image distance =  1.368 bohr

     ------------------------------ iteration   7 ------------------------------

     tcpu =    752.7    self-consistency for image   1
     Message from routine setup:
     using ibrav=0 with symmetry is DISCOURAGED, use correct ibrav instead
     tcpu =    791.9    self-consistency for image   2
     Message from routine setup:
     using ibrav=0 with symmetry is DISCOURAGED, use correct ibrav instead
     tcpu =    825.1    self-consistency for image   3
     Message from routine setup:
     using ibrav=0 with symmetry is DISCOURAGED, use correct ibrav instead
     tcpu =    870.0    self-consistency for image   4
     Message from routine setup:
     using ibrav=0 with symmetry is DISCOURAGED, use correct ibrav instead
     tcpu =    913.8    self-consistency for image   5
     Message from routine setup:
     using ibrav=0 with symmetry is DISCOURAGED, use correct ibrav instead

     activation energy (->) =   2.248307 eV
     activation energy (<-) =   1.115347 eV

     image        energy (eV)        error (eV/A)        frozen

         1    -133596.3731676            0.656583            F
         2    -133595.7251657            1.363309            F
         3    -133594.1248604            2.343839            F
         4    -133594.4509564            1.781933            F
         5    -133595.2402079            0.686400            F

     path length          =  5.471 bohr
     inter-image distance =  1.368 bohr

     ------------------------------ iteration   8 ------------------------------

     tcpu =    946.6    self-consistency for image   1
     Message from routine setup:
     using ibrav=0 with symmetry is DISCOURAGED, use correct ibrav instead
     tcpu =    985.1    self-consistency for image   2
     Message from routine setup:
     using ibrav=0 with symmetry is DISCOURAGED, use correct ibrav instead
     tcpu =   1017.7    self-consistency for image   3
     Message from routine setup:
     using ibrav=0 with symmetry is DISCOURAGED, use correct ibrav instead
     tcpu =   1063.7    self-consistency for image   4
     Message from routine setup:
     using ibrav=0 with symmetry is DISCOURAGED, use correct ibrav instead
     tcpu =   1106.3    self-consistency for image   5
     Message from routine setup:
     using ibrav=0 with symmetry is DISCOURAGED, use correct ibrav instead

     activation energy (->) =   2.187849 eV
     activation energy (<-) =   1.054018 eV

     image        energy (eV)        error (eV/A)        frozen

         1    -133596.4123406            0.633022            F
         2    -133595.7589302            1.343101            F
         3    -133594.2244919            2.195887            F
         4    -133594.5403348            1.674000            F
         5    -133595.2785099            0.682532            F

     path length          =  5.473 bohr
     inter-image distance =  1.368 bohr

     ------------------------------ iteration   9 ------------------------------

     tcpu =   1139.7    self-consistency for image   1
     Message from routine setup:
     using ibrav=0 with symmetry is DISCOURAGED, use correct ibrav instead
     tcpu =   1173.5    self-consistency for image   2
     Message from routine setup:
     using ibrav=0 with symmetry is DISCOURAGED, use correct ibrav instead
     tcpu =   1206.4    self-consistency for image   3
     Message from routine setup:
     using ibrav=0 with symmetry is DISCOURAGED, use correct ibrav instead
     tcpu =   1252.1    self-consistency for image   4
     Message from routine setup:
     using ibrav=0 with symmetry is DISCOURAGED, use correct ibrav instead
     tcpu =   1298.3    self-consistency for image   5
     Message from routine setup:
     using ibrav=0 with symmetry is DISCOURAGED, use correct ibrav instead

     activation energy (->) =   2.126469 eV
     activation energy (<-) =   0.992171 eV

     image        energy (eV)        error (eV/A)        frozen

         1    -133596.4529707            0.609983            F
         2    -133595.7938258            1.319212            F
         3    -133594.3265015            2.039669            F
         4    -133594.6326044            1.562713            F
         5    -133595.3186722            0.678021            F

     path length          =  5.476 bohr
     inter-image distance =  1.369 bohr

     ------------------------------ iteration  10 ------------------------------

     tcpu =   1331.5    self-consistency for image   1
     Message from routine setup:
     using ibrav=0 with symmetry is DISCOURAGED, use correct ibrav instead
     tcpu =   1358.5    self-consistency for image   2
     Message from routine setup:
     using ibrav=0 with symmetry is DISCOURAGED, use correct ibrav instead
     tcpu =   1383.3    self-consistency for image   3
     Message from routine setup:
     using ibrav=0 with symmetry is DISCOURAGED, use correct ibrav instead
     tcpu =   1414.9    self-consistency for image   4
     Message from routine setup:
     using ibrav=0 with symmetry is DISCOURAGED, use correct ibrav instead
     tcpu =   1446.0    self-consistency for image   5
     Message from routine setup:
     using ibrav=0 with symmetry is DISCOURAGED, use correct ibrav instead

     activation energy (->) =   2.112411 eV
     activation energy (<-) =   0.978082 eV

     image        energy (eV)        error (eV/A)        frozen

         1    -133596.4624486            0.603070            F
         2    -133595.8019474            1.313354            F
         3    -133594.3500373            2.003453            F
         4    -133594.6540560            1.536748            F
         5    -133595.3281196            0.675736            F

     path length          =  5.477 bohr
     inter-image distance =  1.369 bohr

     ------------------------------ iteration  11 ------------------------------

     tcpu =   1474.3    self-consistency for image   1
     Message from routine setup:
     using ibrav=0 with symmetry is DISCOURAGED, use correct ibrav instead
     tcpu =   1494.6    self-consistency for image   2
     Message from routine setup:
     using ibrav=0 with symmetry is DISCOURAGED, use correct ibrav instead
     tcpu =   1516.5    self-consistency for image   3
     Message from routine setup:
     using ibrav=0 with symmetry is DISCOURAGED, use correct ibrav instead
     tcpu =   1545.4    self-consistency for image   4
     Message from routine setup:
     using ibrav=0 with symmetry is DISCOURAGED, use correct ibrav instead
     tcpu =   1570.4    self-consistency for image   5
     Message from routine setup:
     using ibrav=0 with symmetry is DISCOURAGED, use correct ibrav instead

     activation energy (->) =   2.106890 eV
     activation energy (<-) =   0.972591 eV

     image        energy (eV)        error (eV/A)        frozen

         1    -133596.4661892            0.600816            F
         2    -133595.8051804            1.311127            F
         3    -133594.3592990            1.989120            F
         4    -133594.6625346            1.526490            F
         5    -133595.3318902            0.675296            F

     path length          =  5.477 bohr
     inter-image distance =  1.369 bohr

     ------------------------------ iteration  12 ------------------------------

     tcpu =   1593.0    self-consistency for image   1
     Message from routine setup:
     using ibrav=0 with symmetry is DISCOURAGED, use correct ibrav instead
     tcpu =   1609.6    self-consistency for image   2
     Message from routine setup:
     using ibrav=0 with symmetry is DISCOURAGED, use correct ibrav instead
     tcpu =   1627.7    self-consistency for image   3
     Message from routine setup:
     using ibrav=0 with symmetry is DISCOURAGED, use correct ibrav instead
     tcpu =   1651.3    self-consistency for image   4
     Message from routine setup:
     using ibrav=0 with symmetry is DISCOURAGED, use correct ibrav instead
     tcpu =   1676.1    self-consistency for image   5
     Message from routine setup:
     using ibrav=0 with symmetry is DISCOURAGED, use correct ibrav instead

     activation energy (->) =   2.102088 eV
     activation energy (<-) =   0.967847 eV

     image        energy (eV)        error (eV/A)        frozen

         1    -133596.4694658            0.565217            F
         2    -133595.8080213            1.305328            F
         3    -133594.3673773            1.977829            F
         4    -133594.6700020            1.517663            F
         5    -133595.3352248            0.674815            F

     path length          =  5.477 bohr
     inter-image distance =  1.369 bohr

     ------------------------------ iteration  13 ------------------------------

     tcpu =   1699.8    self-consistency for image   1
     Message from routine setup:
     using ibrav=0 with symmetry is DISCOURAGED, use correct ibrav instead
     tcpu =   1720.5    self-consistency for image   2
     Message from routine setup:
     using ibrav=0 with symmetry is DISCOURAGED, use correct ibrav instead
     tcpu =   1737.5    self-consistency for image   3
     Message from routine setup:
     using ibrav=0 with symmetry is DISCOURAGED, use correct ibrav instead
     tcpu =   1760.3    self-consistency for image   4
     Message from routine setup:
     using ibrav=0 with symmetry is DISCOURAGED, use correct ibrav instead
     tcpu =   1783.8    self-consistency for image   5
     Message from routine setup:
     using ibrav=0 with symmetry is DISCOURAGED, use correct ibrav instead

     activation energy (->) =   2.097744 eV
     activation energy (<-) =   0.963583 eV

     image        energy (eV)        error (eV/A)        frozen

         1    -133596.4724372            0.596789            F
         2    -133595.8106035            1.303777            F
         3    -133594.3746937            1.967117            F
         4    -133594.6767936            1.509500            F
         5    -133595.3382772            0.672750            F

     path length          =  5.478 bohr
     inter-image distance =  1.369 bohr

     ------------------------------ iteration  14 ------------------------------

     tcpu =   1804.0    self-consistency for image   1
     Message from routine setup:
     using ibrav=0 with symmetry is DISCOURAGED, use correct ibrav instead
     tcpu =   1831.3    self-consistency for image   2
     Message from routine setup:
     using ibrav=0 with symmetry is DISCOURAGED, use correct ibrav instead
     tcpu =   1856.3    self-consistency for image   3
     Message from routine setup:
     using ibrav=0 with symmetry is DISCOURAGED, use correct ibrav instead
     tcpu =   1889.5    self-consistency for image   4
     Message from routine setup:
     using ibrav=0 with symmetry is DISCOURAGED, use correct ibrav instead
     tcpu =   1926.4    self-consistency for image   5
     Message from routine setup:
     using ibrav=0 with symmetry is DISCOURAGED, use correct ibrav instead

     activation energy (->) =   2.079400 eV
     activation energy (<-) =   0.945650 eV

     image        energy (eV)        error (eV/A)        frozen

         1    -133596.4850909            0.589168            F
         2    -133595.8215614            1.301275            F
         3    -133594.4056912            1.921582            F
         4    -133594.7056799            1.475108            F
         5    -133595.3513411            0.672878            F

     path length          =  5.479 bohr
     inter-image distance =  1.370 bohr

     ------------------------------ iteration  15 ------------------------------

     tcpu =   1955.8    self-consistency for image   1
     Message from routine setup:
     using ibrav=0 with symmetry is DISCOURAGED, use correct ibrav instead
     tcpu =   1992.3    self-consistency for image   2
     Message from routine setup:
     using ibrav=0 with symmetry is DISCOURAGED, use correct ibrav instead
     tcpu =   2026.6    self-consistency for image   3
     Message from routine setup:
     using ibrav=0 with symmetry is DISCOURAGED, use correct ibrav instead
     tcpu =   2069.3    self-consistency for image   4
     Message from routine setup:
     using ibrav=0 with symmetry is DISCOURAGED, use correct ibrav instead
     tcpu =   2113.5    self-consistency for image   5
     Message from routine setup:
     using ibrav=0 with symmetry is DISCOURAGED, use correct ibrav instead

     activation energy (->) =   2.035783 eV
     activation energy (<-) =   0.903223 eV

     image        energy (eV)        error (eV/A)        frozen

         1    -133596.5155037            0.570710            F
         2    -133595.8478747            1.284043            F
         3    -133594.4797205            1.812648            F
         4    -133594.7749304            1.392668            F
         5    -133595.3829432            0.669734            F

     path length          =  5.484 bohr
     inter-image distance =  1.371 bohr

     ------------------------------ iteration  16 ------------------------------

     tcpu =   2146.1    self-consistency for image   1
     Message from routine setup:
     using ibrav=0 with symmetry is DISCOURAGED, use correct ibrav instead
     tcpu =   2182.7    self-consistency for image   2
     Message from routine setup:
     using ibrav=0 with symmetry is DISCOURAGED, use correct ibrav instead
     tcpu =   2215.2    self-consistency for image   3
     Message from routine setup:
     using ibrav=0 with symmetry is DISCOURAGED, use correct ibrav instead
     tcpu =   2260.1    self-consistency for image   4
     Message from routine setup:
     using ibrav=0 with symmetry is DISCOURAGED, use correct ibrav instead
     tcpu =   2308.3    self-consistency for image   5
     Message from routine setup:
     using ibrav=0 with symmetry is DISCOURAGED, use correct ibrav instead

     activation energy (->) =   1.991349 eV
     activation energy (<-) =   0.860359 eV

     image        energy (eV)        error (eV/A)        frozen

         1    -133596.5469413            0.549362            F
         2    -133595.8749884            1.264962            F
         3    -133594.5555921            1.699521            F
         4    -133594.8462943            1.305360            F
         5    -133595.4159511            0.665557            F

     path length          =  5.490 bohr
     inter-image distance =  1.372 bohr

     ------------------------------ iteration  17 ------------------------------

     tcpu =   2341.6    self-consistency for image   1
     Message from routine setup:
     using ibrav=0 with symmetry is DISCOURAGED, use correct ibrav instead
     tcpu =   2378.7    self-consistency for image   2
     Message from routine setup:
     using ibrav=0 with symmetry is DISCOURAGED, use correct ibrav instead
     tcpu =   2411.5    self-consistency for image   3
     Message from routine setup:
     using ibrav=0 with symmetry is DISCOURAGED, use correct ibrav instead
     tcpu =   2457.0    self-consistency for image   4
     Message from routine setup:
     using ibrav=0 with symmetry is DISCOURAGED, use correct ibrav instead
     tcpu =   2501.9    self-consistency for image   5
     Message from routine setup:
     using ibrav=0 with symmetry is DISCOURAGED, use correct ibrav instead

     activation energy (->) =   1.947862 eV
     activation energy (<-) =   0.818818 eV

     image        energy (eV)        error (eV/A)        frozen

         1    -133596.5781768            0.527970            F
         2    -133595.9018405            1.244150            F
         3    -133594.6303153            1.588458            F
         4    -133594.9169695            1.216182            F
         5    -133595.4491335            0.659884            F

     path length          =  5.497 bohr
     inter-image distance =  1.374 bohr

     ------------------------------ iteration  18 ------------------------------

     tcpu =   2535.9    self-consistency for image   1
     Message from routine setup:
     using ibrav=0 with symmetry is DISCOURAGED, use correct ibrav instead
     tcpu =   2560.0    self-consistency for image   2
     Message from routine setup:
     using ibrav=0 with symmetry is DISCOURAGED, use correct ibrav instead
     tcpu =   2585.5    self-consistency for image   3
     Message from routine setup:
     using ibrav=0 with symmetry is DISCOURAGED, use correct ibrav instead
     tcpu =   2616.3    self-consistency for image   4
     Message from routine setup:
     using ibrav=0 with symmetry is DISCOURAGED, use correct ibrav instead
     tcpu =   2644.6    self-consistency for image   5
     Message from routine setup:
     using ibrav=0 with symmetry is DISCOURAGED, use correct ibrav instead

     activation energy (->) =   1.938443 eV
     activation energy (<-) =   0.809894 eV

     image        energy (eV)        error (eV/A)        frozen

         1    -133596.5850192            0.524722            F
         2    -133595.9077320            1.239205            F
         3    -133594.6465766            1.563983            F
         4    -133594.9324233            1.196562            F
         5    -133595.4564710            0.658818            F

     path length          =  5.499 bohr
     inter-image distance =  1.375 bohr

     ------------------------------ iteration  19 ------------------------------

     tcpu =   2669.9    self-consistency for image   1
     Message from routine setup:
     using ibrav=0 with symmetry is DISCOURAGED, use correct ibrav instead
     tcpu =   2686.6    self-consistency for image   2
     Message from routine setup:
     using ibrav=0 with symmetry is DISCOURAGED, use correct ibrav instead
     tcpu =   2704.2    self-consistency for image   3
     Message from routine setup:
     using ibrav=0 with symmetry is DISCOURAGED, use correct ibrav instead
     tcpu =   2728.9    self-consistency for image   4
     Message from routine setup:
     using ibrav=0 with symmetry is DISCOURAGED, use correct ibrav instead
     tcpu =   2752.4    self-consistency for image   5
     Message from routine setup:
     using ibrav=0 with symmetry is DISCOURAGED, use correct ibrav instead

     activation energy (->) =   1.934678 eV
     activation energy (<-) =   0.806365 eV

     image        energy (eV)        error (eV/A)        frozen

         1    -133596.5877663            0.491773            F
         2    -133595.9101179            1.233186            F
         3    -133594.6530887            1.555364            F
         4    -133594.9386424            1.188530            F
         5    -133595.4594533            0.658511            F

     path length          =  5.499 bohr
     inter-image distance =  1.375 bohr

     ------------------------------ iteration  20 ------------------------------

     tcpu =   2774.7    self-consistency for image   1
     Message from routine setup:
     using ibrav=0 with symmetry is DISCOURAGED, use correct ibrav instead
     tcpu =   2795.6    self-consistency for image   2
     Message from routine setup:
     using ibrav=0 with symmetry is DISCOURAGED, use correct ibrav instead
     tcpu =   2812.1    self-consistency for image   3
     Message from routine setup:
     using ibrav=0 with symmetry is DISCOURAGED, use correct ibrav instead
     tcpu =   2835.0    self-consistency for image   4
     Message from routine setup:
     using ibrav=0 with symmetry is DISCOURAGED, use correct ibrav instead
     tcpu =   2858.0    self-consistency for image   5
     Message from routine setup:
     using ibrav=0 with symmetry is DISCOURAGED, use correct ibrav instead

     activation energy (->) =   1.931252 eV
     activation energy (<-) =   0.803194 eV

     image        energy (eV)        error (eV/A)        frozen

         1    -133596.5902623            0.519632            F
         2    -133595.9123004            1.231569            F
         3    -133594.6590103            1.547401            F
         4    -133594.9443472            1.178760            F
         5    -133595.4622040            0.658135            F

     path length          =  5.500 bohr
     inter-image distance =  1.375 bohr

     ------------------------------ iteration  21 ------------------------------

     tcpu =   2880.3    self-consistency for image   1
     Message from routine setup:
     using ibrav=0 with symmetry is DISCOURAGED, use correct ibrav instead
     tcpu =   2899.7    self-consistency for image   2
     Message from routine setup:
     using ibrav=0 with symmetry is DISCOURAGED, use correct ibrav instead
     tcpu =   2917.0    self-consistency for image   3
     Message from routine setup:
     using ibrav=0 with symmetry is DISCOURAGED, use correct ibrav instead
     tcpu =   2938.9    self-consistency for image   4
     Message from routine setup:
     using ibrav=0 with symmetry is DISCOURAGED, use correct ibrav instead
     tcpu =   2962.5    self-consistency for image   5
     Message from routine setup:
     using ibrav=0 with symmetry is DISCOURAGED, use correct ibrav instead

     activation energy (->) =   1.927911 eV
     activation energy (<-) =   0.800124 eV

     image        energy (eV)        error (eV/A)        frozen

         1    -133596.5927283            0.516921            F
         2    -133595.9144568            1.230508            F
         3    -133594.6648171            1.539696            F
         4    -133594.9499659            1.175015            F
         5    -133595.4649413            0.657926            F

     path length          =  5.501 bohr
     inter-image distance =  1.375 bohr

     ------------------------------ iteration  22 ------------------------------

     tcpu =   2984.1    self-consistency for image   1
     Message from routine setup:
     using ibrav=0 with symmetry is DISCOURAGED, use correct ibrav instead
     tcpu =   3015.6    self-consistency for image   2
     Message from routine setup:
     using ibrav=0 with symmetry is DISCOURAGED, use correct ibrav instead
     tcpu =   3041.7    self-consistency for image   3
     Message from routine setup:
     using ibrav=0 with symmetry is DISCOURAGED, use correct ibrav instead
     tcpu =   3077.4    self-consistency for image   4
     Message from routine setup:
     using ibrav=0 with symmetry is DISCOURAGED, use correct ibrav instead
     tcpu =   3112.0    self-consistency for image   5
     Message from routine setup:
     using ibrav=0 with symmetry is DISCOURAGED, use correct ibrav instead

     activation energy (->) =   1.913199 eV
     activation energy (<-) =   0.786664 eV

     image        energy (eV)        error (eV/A)        frozen

         1    -133596.6035967            0.514001            F
         2    -133595.9239807            1.228952            F
         3    -133594.6903981            1.506274            F
         4    -133594.9747523            1.144749            F
         5    -133595.4770623            0.655816            F

     path length          =  5.503 bohr
     inter-image distance =  1.376 bohr

     ------------------------------ iteration  23 ------------------------------

     tcpu =   3140.3    self-consistency for image   1
     Message from routine setup:
     using ibrav=0 with symmetry is DISCOURAGED, use correct ibrav instead
     tcpu =   3179.2    self-consistency for image   2
     Message from routine setup:
     using ibrav=0 with symmetry is DISCOURAGED, use correct ibrav instead
     tcpu =   3216.4    self-consistency for image   3
     Message from routine setup:
     using ibrav=0 with symmetry is DISCOURAGED, use correct ibrav instead
     tcpu =   3262.3    self-consistency for image   4
     Message from routine setup:
     using ibrav=0 with symmetry is DISCOURAGED, use correct ibrav instead
     tcpu =   3305.3    self-consistency for image   5
     Message from routine setup:
     using ibrav=0 with symmetry is DISCOURAGED, use correct ibrav instead

     activation energy (->) =   1.878271 eV
     activation energy (<-) =   0.754954 eV

     image        energy (eV)        error (eV/A)        frozen

         1    -133596.6294900            0.505632            F
         2    -133595.9467173            1.215183            F
         3    -133594.7512189            1.427355            F
         4    -133595.0337735            1.073494            F
         5    -133595.5061730            0.652216            F

     path length          =  5.511 bohr
     inter-image distance =  1.378 bohr

     ------------------------------ iteration  24 ------------------------------

     tcpu =   3339.3    self-consistency for image   1
     Message from routine setup:
     using ibrav=0 with symmetry is DISCOURAGED, use correct ibrav instead
     tcpu =   3373.9    self-consistency for image   2
     Message from routine setup:
     using ibrav=0 with symmetry is DISCOURAGED, use correct ibrav instead
     tcpu =   3405.7    self-consistency for image   3
     Message from routine setup:
     using ibrav=0 with symmetry is DISCOURAGED, use correct ibrav instead
     tcpu =   3450.8    self-consistency for image   4
     Message from routine setup:
     using ibrav=0 with symmetry is DISCOURAGED, use correct ibrav instead
     tcpu =   3490.0    self-consistency for image   5
     Message from routine setup:
     using ibrav=0 with symmetry is DISCOURAGED, use correct ibrav instead

     activation energy (->) =   1.843291 eV
     activation energy (<-) =   0.723561 eV

     image        energy (eV)        error (eV/A)        frozen

         1    -133596.6554781            0.496498            F
         2    -133595.9695248            1.200089            F
         3    -133594.8121875            1.352258            F
         4    -133595.0929666            1.001212            F
         5    -133595.5357485            0.647967            F

     path length          =  5.519 bohr
     inter-image distance =  1.380 bohr

     ------------------------------ iteration  25 ------------------------------

     tcpu =   3522.6    self-consistency for image   1
     Message from routine setup:
     using ibrav=0 with symmetry is DISCOURAGED, use correct ibrav instead
     tcpu =   3558.5    self-consistency for image   2
     Message from routine setup:
     using ibrav=0 with symmetry is DISCOURAGED, use correct ibrav instead
     tcpu =   3590.1    self-consistency for image   3
     Message from routine setup:
     using ibrav=0 with symmetry is DISCOURAGED, use correct ibrav instead
     tcpu =   3636.0    self-consistency for image   4
     Message from routine setup:
     using ibrav=0 with symmetry is DISCOURAGED, use correct ibrav instead
     tcpu =   3675.6    self-consistency for image   5
     Message from routine setup:
     using ibrav=0 with symmetry is DISCOURAGED, use correct ibrav instead

     activation energy (->) =   1.810887 eV
     activation energy (<-) =   0.694820 eV

     image        energy (eV)        error (eV/A)        frozen

         1    -133596.6795802            0.487646            F
         2    -133595.9906655            1.184895            F
         3    -133594.8686936            1.282186            F
         4    -133595.1478285            0.932738            F
         5    -133595.5635137            0.640999            F

     path length          =  5.528 bohr
     inter-image distance =  1.382 bohr

     ------------------------------ iteration  26 ------------------------------

     tcpu =   3707.2    self-consistency for image   1
     Message from routine setup:
     using ibrav=0 with symmetry is DISCOURAGED, use correct ibrav instead
     tcpu =   3731.0    self-consistency for image   2
     Message from routine setup:
     using ibrav=0 with symmetry is DISCOURAGED, use correct ibrav instead
     tcpu =   3756.9    self-consistency for image   3
     Message from routine setup:
     using ibrav=0 with symmetry is DISCOURAGED, use correct ibrav instead
     tcpu =   3785.7    self-consistency for image   4
     Message from routine setup:
     using ibrav=0 with symmetry is DISCOURAGED, use correct ibrav instead
     tcpu =   3814.6    self-consistency for image   5
     Message from routine setup:
     using ibrav=0 with symmetry is DISCOURAGED, use correct ibrav instead

     activation energy (->) =   1.803975 eV
     activation energy (<-) =   0.688768 eV

     image        energy (eV)        error (eV/A)        frozen

         1    -133596.6846987            0.485834            F
         2    -133595.9951876            1.181721            F
         3    -133594.8807234            1.268005            F
         4    -133595.1595229            0.917189            F
         5    -133595.5694913            0.641548            F

     path length          =  5.530 bohr
     inter-image distance =  1.383 bohr

     ------------------------------ iteration  27 ------------------------------

     tcpu =   3837.0    self-consistency for image   1
     Message from routine setup:
     using ibrav=0 with symmetry is DISCOURAGED, use correct ibrav instead
     tcpu =   3856.1    self-consistency for image   2
     Message from routine setup:
     using ibrav=0 with symmetry is DISCOURAGED, use correct ibrav instead
     tcpu =   3873.7    self-consistency for image   3
     Message from routine setup:
     using ibrav=0 with symmetry is DISCOURAGED, use correct ibrav instead
     tcpu =   3895.9    self-consistency for image   4
     Message from routine setup:
     using ibrav=0 with symmetry is DISCOURAGED, use correct ibrav instead
     tcpu =   3921.3    self-consistency for image   5
     Message from routine setup:
     using ibrav=0 with symmetry is DISCOURAGED, use correct ibrav instead

     activation energy (->) =   1.801178 eV
     activation energy (<-) =   0.686330 eV

     image        energy (eV)        error (eV/A)        frozen

         1    -133596.6867781            0.483542            F
         2    -133595.9970500            1.177179            F
         3    -133594.8856005            1.260306            F
         4    -133595.1642858            0.911940            F
         5    -133595.5719308            0.612548            F

     path length          =  5.531 bohr
     inter-image distance =  1.383 bohr

     ------------------------------ iteration  28 ------------------------------

     tcpu =   3938.7    self-consistency for image   1
     Message from routine setup:
     using ibrav=0 with symmetry is DISCOURAGED, use correct ibrav instead
     tcpu =   3954.6    self-consistency for image   2
     Message from routine setup:
     using ibrav=0 with symmetry is DISCOURAGED, use correct ibrav instead
     tcpu =   3972.0    self-consistency for image   3
     Message from routine setup:
     using ibrav=0 with symmetry is DISCOURAGED, use correct ibrav instead
     tcpu =   3994.1    self-consistency for image   4
     Message from routine setup:
     using ibrav=0 with symmetry is DISCOURAGED, use correct ibrav instead
     tcpu =   4018.6    self-consistency for image   5
     Message from routine setup:
     using ibrav=0 with symmetry is DISCOURAGED, use correct ibrav instead

     activation energy (->) =   1.798546 eV
     activation energy (<-) =   0.684040 eV

     image        energy (eV)        error (eV/A)        frozen

         1    -133596.6887207            0.462337            F
         2    -133595.9988020            1.176511            F
         3    -133594.8901745            1.257546            F
         4    -133595.1687675            0.906912            F
         5    -133595.5742145            0.612186            F

     path length          =  5.532 bohr
     inter-image distance =  1.383 bohr

     ------------------------------ iteration  29 ------------------------------

     tcpu =   4035.3    self-consistency for image   1
     Message from routine setup:
     using ibrav=0 with symmetry is DISCOURAGED, use correct ibrav instead
     tcpu =   4057.1    self-consistency for image   2
     Message from routine setup:
     using ibrav=0 with symmetry is DISCOURAGED, use correct ibrav instead
     tcpu =   4073.4    self-consistency for image   3
     Message from routine setup:
     using ibrav=0 with symmetry is DISCOURAGED, use correct ibrav instead
     tcpu =   4094.3    self-consistency for image   4
     Message from routine setup:
     using ibrav=0 with symmetry is DISCOURAGED, use correct ibrav instead
     tcpu =   4117.2    self-consistency for image   5
     Message from routine setup:
     using ibrav=0 with symmetry is DISCOURAGED, use correct ibrav instead

     activation energy (->) =   1.795813 eV
     activation energy (<-) =   0.681686 eV

     image        energy (eV)        error (eV/A)        frozen

         1    -133596.6907298            0.483608            F
         2    -133596.0006371            1.176237            F
         3    -133594.8949171            1.252252            F
         4    -133595.1734288            0.901717            F
         5    -133595.5766032            0.640171            F

     path length          =  5.533 bohr
     inter-image distance =  1.383 bohr

     ------------------------------ iteration  30 ------------------------------

     tcpu =   4140.5    self-consistency for image   1
     Message from routine setup:
     using ibrav=0 with symmetry is DISCOURAGED, use correct ibrav instead
     tcpu =   4169.2    self-consistency for image   2
     Message from routine setup:
     using ibrav=0 with symmetry is DISCOURAGED, use correct ibrav instead
     tcpu =   4199.3    self-consistency for image   3
     Message from routine setup:
     using ibrav=0 with symmetry is DISCOURAGED, use correct ibrav instead
     tcpu =   4236.1    self-consistency for image   4
     Message from routine setup:
     using ibrav=0 with symmetry is DISCOURAGED, use correct ibrav instead
     tcpu =   4268.5    self-consistency for image   5
     Message from routine setup:
     using ibrav=0 with symmetry is DISCOURAGED, use correct ibrav instead

     activation energy (->) =   1.782508 eV
     activation energy (<-) =   0.670306 eV

     image        energy (eV)        error (eV/A)        frozen

         1    -133596.7004859            0.480428            F
         2    -133596.0095819            1.174095            F
         3    -133594.9179776            1.229995            F
         4    -133595.1961038            0.875687            F
         5    -133595.5882837            0.638013            F

     path length          =  5.536 bohr
     inter-image distance =  1.384 bohr

     ------------------------------ iteration  31 ------------------------------

     tcpu =   4297.6    self-consistency for image   1
     Message from routine setup:
     using ibrav=0 with symmetry is DISCOURAGED, use correct ibrav instead
     tcpu =   4339.3    self-consistency for image   2
     Message from routine setup:
     using ibrav=0 with symmetry is DISCOURAGED, use correct ibrav instead
     tcpu =   4374.1    self-consistency for image   3
     Message from routine setup:
     using ibrav=0 with symmetry is DISCOURAGED, use correct ibrav instead
     tcpu =   4421.7    self-consistency for image   4
     Message from routine setup:
     using ibrav=0 with symmetry is DISCOURAGED, use correct ibrav instead
     tcpu =   4461.9    self-consistency for image   5
     Message from routine setup:
     using ibrav=0 with symmetry is DISCOURAGED, use correct ibrav instead

     activation energy (->) =   1.750830 eV
     activation energy (<-) =   0.643455 eV

     image        energy (eV)        error (eV/A)        frozen

         1    -133596.7236023            0.470889            F
         2    -133596.0308208            1.162356            F
         3    -133594.9727719            1.172500            F
         4    -133595.2498747            0.823432            F
         5    -133595.6162265            0.630899            F

     path length          =  5.546 bohr
     inter-image distance =  1.387 bohr

     ------------------------------ iteration  32 ------------------------------

     tcpu =   4495.0    self-consistency for image   1
     Message from routine setup:
     using ibrav=0 with symmetry is DISCOURAGED, use correct ibrav instead
     tcpu =   4533.9    self-consistency for image   2
     Message from routine setup:
     using ibrav=0 with symmetry is DISCOURAGED, use correct ibrav instead
     tcpu =   4569.9    self-consistency for image   3
     Message from routine setup:
     using ibrav=0 with symmetry is DISCOURAGED, use correct ibrav instead
     tcpu =   4612.9    self-consistency for image   4
     Message from routine setup:
     using ibrav=0 with symmetry is DISCOURAGED, use correct ibrav instead
     tcpu =   4651.1    self-consistency for image   5
     Message from routine setup:
     using ibrav=0 with symmetry is DISCOURAGED, use correct ibrav instead

     activation energy (->) =   1.719530 eV
     activation energy (<-) =   0.617320 eV

     image        energy (eV)        error (eV/A)        frozen

         1    -133596.7462324            0.461974            F
         2    -133596.0516675            1.150657            F
         3    -133595.0267028            1.116244            F
         4    -133595.3026648            0.798190            F
         5    -133595.6440225            0.628713            F

     path length          =  5.557 bohr
     inter-image distance =  1.389 bohr

     ------------------------------ iteration  33 ------------------------------

     tcpu =   4681.7    self-consistency for image   1
     Message from routine setup:
     using ibrav=0 with symmetry is DISCOURAGED, use correct ibrav instead
     tcpu =   4720.8    self-consistency for image   2
     Message from routine setup:
     using ibrav=0 with symmetry is DISCOURAGED, use correct ibrav instead
     tcpu =   4754.5    self-consistency for image   3
     Message from routine setup:
     using ibrav=0 with symmetry is DISCOURAGED, use correct ibrav instead
     tcpu =   4794.3    self-consistency for image   4
     Message from routine setup:
     using ibrav=0 with symmetry is DISCOURAGED, use correct ibrav instead
     tcpu =   4832.3    self-consistency for image   5
     Message from routine setup:
     using ibrav=0 with symmetry is DISCOURAGED, use correct ibrav instead

     activation energy (->) =   1.691610 eV
     activation energy (<-) =   0.594373 eV

     image        energy (eV)        error (eV/A)        frozen

         1    -133596.7662198            0.453409            F
         2    -133596.0701216            1.139283            F
         3    -133595.0746100            1.064796            F
         4    -133595.3494347            0.775702            F
         5    -133595.6689827            0.623669            F

     path length          =  5.567 bohr
     inter-image distance =  1.392 bohr

     ------------------------------ iteration  34 ------------------------------

     tcpu =   4864.2    self-consistency for image   1
     Message from routine setup:
     using ibrav=0 with symmetry is DISCOURAGED, use correct ibrav instead
     tcpu =   4885.6    self-consistency for image   2
     Message from routine setup:
     using ibrav=0 with symmetry is DISCOURAGED, use correct ibrav instead
     tcpu =   4905.9    self-consistency for image   3
     Message from routine setup:
     using ibrav=0 with symmetry is DISCOURAGED, use correct ibrav instead
     tcpu =   4936.2    self-consistency for image   4
     Message from routine setup:
     using ibrav=0 with symmetry is DISCOURAGED, use correct ibrav instead
     tcpu =   4965.6    self-consistency for image   5
     Message from routine setup:
     using ibrav=0 with symmetry is DISCOURAGED, use correct ibrav instead

     activation energy (->) =   1.686165 eV
     activation energy (<-) =   0.589970 eV

     image        energy (eV)        error (eV/A)        frozen

         1    -133596.7700820            0.452384            F
         2    -133596.0737207            1.136056            F
         3    -133595.0839172            1.054594            F
         4    -133595.3585235            0.770729            F
         5    -133595.6738871            0.622780            F

     path length          =  5.569 bohr
     inter-image distance =  1.392 bohr

     ------------------------------ iteration  35 ------------------------------

     tcpu =   4991.9    self-consistency for image   1
     Message from routine setup:
     using ibrav=0 with symmetry is DISCOURAGED, use correct ibrav instead
     tcpu =   5008.3    self-consistency for image   2
     Message from routine setup:
     using ibrav=0 with symmetry is DISCOURAGED, use correct ibrav instead
     tcpu =   5025.2    self-consistency for image   3
     Message from routine setup:
     using ibrav=0 with symmetry is DISCOURAGED, use correct ibrav instead
     tcpu =   5047.9    self-consistency for image   4
     Message from routine setup:
     using ibrav=0 with symmetry is DISCOURAGED, use correct ibrav instead
     tcpu =   5068.1    self-consistency for image   5
     Message from routine setup:
     using ibrav=0 with symmetry is DISCOURAGED, use correct ibrav instead

     activation energy (->) =   1.683932 eV
     activation energy (<-) =   0.588174 eV

     image        energy (eV)        error (eV/A)        frozen

         1    -133596.7716539            0.431135            F
         2    -133596.0752160            1.137623            F
         3    -133595.0877217            1.048717            F
         4    -133595.3622322            0.766350            F
         5    -133595.6758958            0.595767            F

     path length          =  5.570 bohr
     inter-image distance =  1.393 bohr

     ------------------------------ iteration  36 ------------------------------

     tcpu =   5085.9    self-consistency for image   1
     Message from routine setup:
     using ibrav=0 with symmetry is DISCOURAGED, use correct ibrav instead
     tcpu =   5103.6    self-consistency for image   2
     Message from routine setup:
     using ibrav=0 with symmetry is DISCOURAGED, use correct ibrav instead
     tcpu =   5120.8    self-consistency for image   3
     Message from routine setup:
     using ibrav=0 with symmetry is DISCOURAGED, use correct ibrav instead
     tcpu =   5141.5    self-consistency for image   4
     Message from routine setup:
     using ibrav=0 with symmetry is DISCOURAGED, use correct ibrav instead
     tcpu =   5163.7    self-consistency for image   5
     Message from routine setup:
     using ibrav=0 with symmetry is DISCOURAGED, use correct ibrav instead

     activation energy (->) =   1.681764 eV
     activation energy (<-) =   0.586473 eV

     image        energy (eV)        error (eV/A)        frozen

         1    -133596.7731046            0.429205            F
         2    -133596.0766394            1.136941            F
         3    -133595.0913402            1.046125            F
         4    -133595.3657767            0.766922            F
         5    -133595.6778136            0.594700            F

     path length          =  5.571 bohr
     inter-image distance =  1.393 bohr

     ------------------------------ iteration  37 ------------------------------

     tcpu =   5179.9    self-consistency for image   1
     Message from routine setup:
     using ibrav=0 with symmetry is DISCOURAGED, use correct ibrav instead
     tcpu =   5197.9    self-consistency for image   2
     Message from routine setup:
     using ibrav=0 with symmetry is DISCOURAGED, use correct ibrav instead
     tcpu =   5214.4    self-consistency for image   3
     Message from routine setup:
     using ibrav=0 with symmetry is DISCOURAGED, use correct ibrav instead
     tcpu =   5235.8    self-consistency for image   4
     Message from routine setup:
     using ibrav=0 with symmetry is DISCOURAGED, use correct ibrav instead
     tcpu =   5259.8    self-consistency for image   5
     Message from routine setup:
     using ibrav=0 with symmetry is DISCOURAGED, use correct ibrav instead

     activation energy (->) =   1.679344 eV
     activation energy (<-) =   0.584601 eV

     image        energy (eV)        error (eV/A)        frozen

         1    -133596.7746628            0.427749            F
         2    -133596.0782209            1.136738            F
         3    -133595.0953190            1.044006            F
         4    -133595.3696863            0.762560            F
         5    -133595.6799198            0.593725            F

     path length          =  5.572 bohr
     inter-image distance =  1.393 bohr

     ------------------------------ iteration  38 ------------------------------

     tcpu =   5275.8    self-consistency for image   1
     Message from routine setup:
     using ibrav=0 with symmetry is DISCOURAGED, use correct ibrav instead
     tcpu =   5307.4    self-consistency for image   2
     Message from routine setup:
     using ibrav=0 with symmetry is DISCOURAGED, use correct ibrav instead
     tcpu =   5335.6    self-consistency for image   3
     Message from routine setup:
     using ibrav=0 with symmetry is DISCOURAGED, use correct ibrav instead
     tcpu =   5372.3    self-consistency for image   4
     Message from routine setup:
     using ibrav=0 with symmetry is DISCOURAGED, use correct ibrav instead
     tcpu =   5401.3    self-consistency for image   5
     Message from routine setup:
     using ibrav=0 with symmetry is DISCOURAGED, use correct ibrav instead

     activation energy (->) =   1.667517 eV
     activation energy (<-) =   0.575329 eV

     image        energy (eV)        error (eV/A)        frozen

         1    -133596.7826128            0.446565            F
         2    -133596.0860925            1.130613            F
         3    -133595.1150955            1.025393            F
         4    -133595.3890713            0.756393            F
         5    -133595.6904245            0.619359            F

     path length          =  5.576 bohr
     inter-image distance =  1.394 bohr

     ------------------------------ iteration  39 ------------------------------

     tcpu =   5432.0    self-consistency for image   1
     Message from routine setup:
     using ibrav=0 with symmetry is DISCOURAGED, use correct ibrav instead
     tcpu =   5469.7    self-consistency for image   2
     Message from routine setup:
     using ibrav=0 with symmetry is DISCOURAGED, use correct ibrav instead
     tcpu =   5503.5    self-consistency for image   3
     Message from routine setup:
     using ibrav=0 with symmetry is DISCOURAGED, use correct ibrav instead
     tcpu =   5544.8    self-consistency for image   4
     Message from routine setup:
     using ibrav=0 with symmetry is DISCOURAGED, use correct ibrav instead
     tcpu =   5582.5    self-consistency for image   5
     Message from routine setup:
     using ibrav=0 with symmetry is DISCOURAGED, use correct ibrav instead

     activation energy (->) =   1.637646 eV
     activation energy (<-) =   0.552292 eV

     image        energy (eV)        error (eV/A)        frozen

         1    -133596.8023565            0.439192            F
         2    -133596.1058246            1.119734            F
         3    -133595.1647105            0.975136            F
         4    -133595.4376467            0.730382            F
         5    -133595.7170020            0.612790            F

     path length          =  5.587 bohr
     inter-image distance =  1.397 bohr

     ------------------------------ iteration  40 ------------------------------

     tcpu =   5615.1    self-consistency for image   1
     Message from routine setup:
     using ibrav=0 with symmetry is DISCOURAGED, use correct ibrav instead
     tcpu =   5654.0    self-consistency for image   2
     Message from routine setup:
     using ibrav=0 with symmetry is DISCOURAGED, use correct ibrav instead
     tcpu =   5686.9    self-consistency for image   3
     Message from routine setup:
     using ibrav=0 with symmetry is DISCOURAGED, use correct ibrav instead
     tcpu =   5731.9    self-consistency for image   4
     Message from routine setup:
     using ibrav=0 with symmetry is DISCOURAGED, use correct ibrav instead
     tcpu =   5773.1    self-consistency for image   5
     Message from routine setup:
     using ibrav=0 with symmetry is DISCOURAGED, use correct ibrav instead

     activation energy (->) =   1.608388 eV
     activation energy (<-) =   0.530121 eV

     image        energy (eV)        error (eV/A)        frozen

         1    -133596.8214838            0.431194            F
         2    -133596.1250080            1.108515            F
         3    -133595.2130955            0.924579            F
         4    -133595.4849444            0.706228            F
         5    -133595.7432168            0.609409            F

     path length          =  5.599 bohr
     inter-image distance =  1.400 bohr

     ------------------------------ iteration  41 ------------------------------

     tcpu =   5803.7    self-consistency for image   1
     Message from routine setup:
     using ibrav=0 with symmetry is DISCOURAGED, use correct ibrav instead
     tcpu =   5840.0    self-consistency for image   2
     Message from routine setup:
     using ibrav=0 with symmetry is DISCOURAGED, use correct ibrav instead
     tcpu =   5872.7    self-consistency for image   3
     Message from routine setup:
     using ibrav=0 with symmetry is DISCOURAGED, use correct ibrav instead
     tcpu =   5909.9    self-consistency for image   4
     Message from routine setup:
     using ibrav=0 with symmetry is DISCOURAGED, use correct ibrav instead
     tcpu =   5950.4    self-consistency for image   5
     Message from routine setup:
     using ibrav=0 with symmetry is DISCOURAGED, use correct ibrav instead

     activation energy (->) =   1.583585 eV
     activation energy (<-) =   0.511667 eV

     image        energy (eV)        error (eV/A)        frozen

         1    -133596.8375668            0.423915            F
         2    -133596.1411732            1.098790            F
         3    -133595.2539818            0.880704            F
         4    -133595.5248999            0.685190            F
         5    -133595.7656483            0.605014            F

     path length          =  5.610 bohr
     inter-image distance =  1.403 bohr

     ------------------------------ iteration  42 ------------------------------

     tcpu =   5983.1    self-consistency for image   1
     Message from routine setup:
     using ibrav=0 with symmetry is DISCOURAGED, use correct ibrav instead
     tcpu =   6008.3    self-consistency for image   2
     Message from routine setup:
     using ibrav=0 with symmetry is DISCOURAGED, use correct ibrav instead
     tcpu =   6033.1    self-consistency for image   3
     Message from routine setup:
     using ibrav=0 with symmetry is DISCOURAGED, use correct ibrav instead
     tcpu =   6063.7    self-consistency for image   4
     Message from routine setup:
     using ibrav=0 with symmetry is DISCOURAGED, use correct ibrav instead
     tcpu =   6089.4    self-consistency for image   5
     Message from routine setup:
     using ibrav=0 with symmetry is DISCOURAGED, use correct ibrav instead

     activation energy (->) =   1.578819 eV
     activation energy (<-) =   0.508189 eV

     image        energy (eV)        error (eV/A)        frozen

         1    -133596.8406370            0.422577            F
         2    -133596.1443021            1.096678            F
         3    -133595.2618180            0.871442            F
         4    -133595.5325625            0.680076            F
         5    -133595.7700069            0.605059            F

     path length          =  5.612 bohr
     inter-image distance =  1.403 bohr

     ------------------------------ iteration  43 ------------------------------

     tcpu =   6114.5    self-consistency for image   1
     Message from routine setup:
     using ibrav=0 with symmetry is DISCOURAGED, use correct ibrav instead
     tcpu =   6131.5    self-consistency for image   2
     Message from routine setup:
     using ibrav=0 with symmetry is DISCOURAGED, use correct ibrav instead
     tcpu =   6148.4    self-consistency for image   3
     Message from routine setup:
     using ibrav=0 with symmetry is DISCOURAGED, use correct ibrav instead
     tcpu =   6168.6    self-consistency for image   4
     Message from routine setup:
     using ibrav=0 with symmetry is DISCOURAGED, use correct ibrav instead
     tcpu =   6190.1    self-consistency for image   5
     Message from routine setup:
     using ibrav=0 with symmetry is DISCOURAGED, use correct ibrav instead

     activation energy (->) =   1.576963 eV
     activation energy (<-) =   0.506849 eV

     image        energy (eV)        error (eV/A)        frozen

         1    -133596.8418173            0.401903            F
         2    -133596.1455219            1.097804            F
         3    -133595.2648546            0.866388            F
         4    -133595.5355375            0.679539            F
         5    -133595.7717035            0.579697            F

     path length          =  5.613 bohr
     inter-image distance =  1.403 bohr

     ------------------------------ iteration  44 ------------------------------

     tcpu =   6206.4    self-consistency for image   1
     Message from routine setup:
     using ibrav=0 with symmetry is DISCOURAGED, use correct ibrav instead
     tcpu =   6224.3    self-consistency for image   2
     Message from routine setup:
     using ibrav=0 with symmetry is DISCOURAGED, use correct ibrav instead
     tcpu =   6241.8    self-consistency for image   3
     Message from routine setup:
     using ibrav=0 with symmetry is DISCOURAGED, use correct ibrav instead
     tcpu =   6258.4    self-consistency for image   4
     Message from routine setup:
     using ibrav=0 with symmetry is DISCOURAGED, use correct ibrav instead
     tcpu =   6275.9    self-consistency for image   5
     Message from routine setup:
     using ibrav=0 with symmetry is DISCOURAGED, use correct ibrav instead

     activation energy (->) =   1.575200 eV
     activation energy (<-) =   0.505622 eV

     image        energy (eV)        error (eV/A)        frozen

         1    -133596.8429187            0.402352            F
         2    -133596.1467112            1.097028            F
         3    -133595.2677190            0.824766            F
         4    -133595.5383900            0.638735            F
         5    -133595.7733413            0.581093            F

     path length          =  5.614 bohr
     inter-image distance =  1.404 bohr

     ------------------------------ iteration  45 ------------------------------

     tcpu =   6291.8    self-consistency for image   1
     Message from routine setup:
     using ibrav=0 with symmetry is DISCOURAGED, use correct ibrav instead
     tcpu =   6313.9    self-consistency for image   2
     Message from routine setup:
     using ibrav=0 with symmetry is DISCOURAGED, use correct ibrav instead
     tcpu =   6331.4    self-consistency for image   3
     Message from routine setup:
     using ibrav=0 with symmetry is DISCOURAGED, use correct ibrav instead
     tcpu =   6350.9    self-consistency for image   4
     Message from routine setup:
     using ibrav=0 with symmetry is DISCOURAGED, use correct ibrav instead
     tcpu =   6372.4    self-consistency for image   5
     Message from routine setup:
     using ibrav=0 with symmetry is DISCOURAGED, use correct ibrav instead

     activation energy (->) =   1.573322 eV
     activation energy (<-) =   0.504305 eV

     image        energy (eV)        error (eV/A)        frozen

         1    -133596.8441767            0.422347            F
         2    -133596.1480387            1.096868            F
         3    -133595.2708544            0.816952            F
         4    -133595.5415393            0.673826            F
         5    -133595.7751590            0.577078            F

     path length          =  5.615 bohr
     inter-image distance =  1.404 bohr

     ------------------------------ iteration  46 ------------------------------

     tcpu =   6389.0    self-consistency for image   1
     Message from routine setup:
     using ibrav=0 with symmetry is DISCOURAGED, use correct ibrav instead
     tcpu =   6420.1    self-consistency for image   2
     Message from routine setup:
     using ibrav=0 with symmetry is DISCOURAGED, use correct ibrav instead
     tcpu =   6450.8    self-consistency for image   3
     Message from routine setup:
     using ibrav=0 with symmetry is DISCOURAGED, use correct ibrav instead
     tcpu =   6487.6    self-consistency for image   4
     Message from routine setup:
     using ibrav=0 with symmetry is DISCOURAGED, use correct ibrav instead
     tcpu =   6518.4    self-consistency for image   5
     Message from routine setup:
     using ibrav=0 with symmetry is DISCOURAGED, use correct ibrav instead

     activation energy (->) =   1.562354 eV
     activation energy (<-) =   0.496647 eV

     image        energy (eV)        error (eV/A)        frozen

         1    -133596.8510744            0.418322            F
         2    -133596.1554727            1.090317            F
         3    -133595.2887207            0.845562            F
         4    -133595.5591546            0.666333            F
         5    -133595.7853680            0.601893            F

     path length          =  5.620 bohr
     inter-image distance =  1.405 bohr

     ------------------------------ iteration  47 ------------------------------

     tcpu =   6548.5    self-consistency for image   1
     Message from routine setup:
     using ibrav=0 with symmetry is DISCOURAGED, use correct ibrav instead
     tcpu =   6588.2    self-consistency for image   2
     Message from routine setup:
     using ibrav=0 with symmetry is DISCOURAGED, use correct ibrav instead
     tcpu =   6622.9    self-consistency for image   3
     Message from routine setup:
     using ibrav=0 with symmetry is DISCOURAGED, use correct ibrav instead
     tcpu =   6668.2    self-consistency for image   4
     Message from routine setup:
     using ibrav=0 with symmetry is DISCOURAGED, use correct ibrav instead
     tcpu =   6709.1    self-consistency for image   5
     Message from routine setup:
     using ibrav=0 with symmetry is DISCOURAGED, use correct ibrav instead

     activation energy (->) =   1.532512 eV
     activation energy (<-) =   0.476170 eV

     image        energy (eV)        error (eV/A)        frozen

         1    -133596.8698235            0.410953            F
         2    -133596.1757020            1.078412            F
         3    -133595.3373118            0.797868            F
         4    -133595.6072419            0.640737            F
         5    -133595.8134819            0.596050            F

     path length          =  5.633 bohr
     inter-image distance =  1.408 bohr

     ------------------------------ iteration  48 ------------------------------

     tcpu =   6745.0    self-consistency for image   1
     Message from routine setup:
     using ibrav=0 with symmetry is DISCOURAGED, use correct ibrav instead
     tcpu =   6783.8    self-consistency for image   2
     Message from routine setup:
     using ibrav=0 with symmetry is DISCOURAGED, use correct ibrav instead
     tcpu =   6820.2    self-consistency for image   3
     Message from routine setup:
     using ibrav=0 with symmetry is DISCOURAGED, use correct ibrav instead
     tcpu =   6860.8    self-consistency for image   4
     Message from routine setup:
     using ibrav=0 with symmetry is DISCOURAGED, use correct ibrav instead
     tcpu =   6901.4    self-consistency for image   5
     Message from routine setup:
     using ibrav=0 with symmetry is DISCOURAGED, use correct ibrav instead

     activation energy (->) =   1.503566 eV
     activation energy (<-) =   0.456714 eV

     image        energy (eV)        error (eV/A)        frozen

         1    -133596.8878037            0.402855            F
         2    -133596.1951171            1.064853            F
         3    -133595.3842382            0.750106            F
         4    -133595.6536551            0.614570            F
         5    -133595.8409518            0.589240            F

     path length          =  5.647 bohr
     inter-image distance =  1.412 bohr

     ------------------------------ iteration  49 ------------------------------

     tcpu =   6939.3    self-consistency for image   1
     Message from routine setup:
     using ibrav=0 with symmetry is DISCOURAGED, use correct ibrav instead
     tcpu =   6976.8    self-consistency for image   2
     Message from routine setup:
     using ibrav=0 with symmetry is DISCOURAGED, use correct ibrav instead
     tcpu =   7013.1    self-consistency for image   3
     Message from routine setup:
     using ibrav=0 with symmetry is DISCOURAGED, use correct ibrav instead
     tcpu =   7054.9    self-consistency for image   4
     Message from routine setup:
     using ibrav=0 with symmetry is DISCOURAGED, use correct ibrav instead
     tcpu =   7096.3    self-consistency for image   5
     Message from routine setup:
     using ibrav=0 with symmetry is DISCOURAGED, use correct ibrav instead

     activation energy (->) =   1.479063 eV
     activation energy (<-) =   0.440546 eV

     image        energy (eV)        error (eV/A)        frozen

         1    -133596.9028724            0.396226            F
         2    -133596.2113757            1.051255            F
         3    -133595.4238091            0.708089            F
         4    -133595.6927469            0.592411            F
         5    -133595.8643548            0.583502            F

     path length          =  5.660 bohr
     inter-image distance =  1.415 bohr

     ------------------------------ iteration  50 ------------------------------

     tcpu =   7132.7    self-consistency for image   1
     Message from routine setup:
     using ibrav=0 with symmetry is DISCOURAGED, use correct ibrav instead
     tcpu =   7159.3    self-consistency for image   2
     Message from routine setup:
     using ibrav=0 with symmetry is DISCOURAGED, use correct ibrav instead
     tcpu =   7179.8    self-consistency for image   3
     Message from routine setup:
     using ibrav=0 with symmetry is DISCOURAGED, use correct ibrav instead
     tcpu =   7210.0    self-consistency for image   4
     Message from routine setup:
     using ibrav=0 with symmetry is DISCOURAGED, use correct ibrav instead
     tcpu =   7235.9    self-consistency for image   5
     Message from routine setup:
     using ibrav=0 with symmetry is DISCOURAGED, use correct ibrav instead

     activation energy (->) =   1.474859 eV
     activation energy (<-) =   0.437824 eV

     image        energy (eV)        error (eV/A)        frozen

         1    -133596.9054189            0.395502            F
         2    -133596.2141515            1.047771            F
         3    -133595.4305598            0.700498            F
         4    -133595.6994061            0.588244            F
         5    -133595.8683836            0.583340            F

     path length          =  5.663 bohr
     inter-image distance =  1.416 bohr

     ------------------------------ iteration  51 ------------------------------

     tcpu =   7257.2    self-consistency for image   1
     Message from routine setup:
     using ibrav=0 with symmetry is DISCOURAGED, use correct ibrav instead
     tcpu =   7275.0    self-consistency for image   2
     Message from routine setup:
     using ibrav=0 with symmetry is DISCOURAGED, use correct ibrav instead
     tcpu =   7292.8    self-consistency for image   3
     Message from routine setup:
     using ibrav=0 with symmetry is DISCOURAGED, use correct ibrav instead
     tcpu =   7312.3    self-consistency for image   4
     Message from routine setup:
     using ibrav=0 with symmetry is DISCOURAGED, use correct ibrav instead
     tcpu =   7329.7    self-consistency for image   5
     Message from routine setup:
     using ibrav=0 with symmetry is DISCOURAGED, use correct ibrav instead

     activation energy (->) =   1.473441 eV
     activation energy (<-) =   0.436958 eV

     image        energy (eV)        error (eV/A)        frozen

         1    -133596.9063151            0.375357            F
         2    -133596.2151509            1.050298            F
         3    -133595.4328736            0.662169            F
         4    -133595.7017699            0.553664            F
         5    -133595.8698315            0.558908            F

     path length          =  5.663 bohr
     inter-image distance =  1.416 bohr

     ------------------------------ iteration  52 ------------------------------

     tcpu =   7345.8    self-consistency for image   1
     Message from routine setup:
     using ibrav=0 with symmetry is DISCOURAGED, use correct ibrav instead
     tcpu =   7363.6    self-consistency for image   2
     Message from routine setup:
     using ibrav=0 with symmetry is DISCOURAGED, use correct ibrav instead
     tcpu =   7381.3    self-consistency for image   3
     Message from routine setup:
     using ibrav=0 with symmetry is DISCOURAGED, use correct ibrav instead
     tcpu =   7398.2    self-consistency for image   4
     Message from routine setup:
     using ibrav=0 with symmetry is DISCOURAGED, use correct ibrav instead
     tcpu =   7416.1    self-consistency for image   5
     Message from routine setup:
     using ibrav=0 with symmetry is DISCOURAGED, use correct ibrav instead

     activation energy (->) =   1.472001 eV
     activation energy (<-) =   0.436051 eV

     image        energy (eV)        error (eV/A)        frozen

         1    -133596.9071316            0.378305            F
         2    -133596.2160994            1.048985            F
         3    -133595.4351310            0.670535            F
         4    -133595.7039550            0.558956            F
         5    -133595.8711815            0.562122            F

     path length          =  5.664 bohr
     inter-image distance =  1.416 bohr

     ------------------------------ iteration  53 ------------------------------

     tcpu =   7432.1    self-consistency for image   1
     Message from routine setup:
     using ibrav=0 with symmetry is DISCOURAGED, use correct ibrav instead
     tcpu =   7453.0    self-consistency for image   2
     Message from routine setup:
     using ibrav=0 with symmetry is DISCOURAGED, use correct ibrav instead
     tcpu =   7470.4    self-consistency for image   3
     Message from routine setup:
     using ibrav=0 with symmetry is DISCOURAGED, use correct ibrav instead
     tcpu =   7490.2    self-consistency for image   4
     Message from routine setup:
     using ibrav=0 with symmetry is DISCOURAGED, use correct ibrav instead
     tcpu =   7513.6    self-consistency for image   5
     Message from routine setup:
     using ibrav=0 with symmetry is DISCOURAGED, use correct ibrav instead

     activation energy (->) =   1.470331 eV
     activation energy (<-) =   0.434984 eV

     image        energy (eV)        error (eV/A)        frozen

         1    -133596.9081264            0.395235            F
         2    -133596.2172199            1.047578            F
         3    -133595.4377958            0.692983            F
         4    -133595.7065679            0.585160            F
         5    -133595.8727802            0.558732            F

     path length          =  5.665 bohr
     inter-image distance =  1.416 bohr

     ------------------------------ iteration  54 ------------------------------

     tcpu =   7530.2    self-consistency for image   1
     Message from routine setup:
     using ibrav=0 with symmetry is DISCOURAGED, use correct ibrav instead
     tcpu =   7564.1    self-consistency for image   2
     Message from routine setup:
     using ibrav=0 with symmetry is DISCOURAGED, use correct ibrav instead
     tcpu =   7594.7    self-consistency for image   3
     Message from routine setup:
     using ibrav=0 with symmetry is DISCOURAGED, use correct ibrav instead
     tcpu =   7629.7    self-consistency for image   4
     Message from routine setup:
     using ibrav=0 with symmetry is DISCOURAGED, use correct ibrav instead
     tcpu =   7662.7    self-consistency for image   5
     Message from routine setup:
     using ibrav=0 with symmetry is DISCOURAGED, use correct ibrav instead

     activation energy (->) =   1.459258 eV
     activation energy (<-) =   0.428178 eV

     image        energy (eV)        error (eV/A)        frozen

         1    -133596.9146445            0.391877            F
         2    -133596.2247920            1.039532            F
[...]
     tcpu =  10756.1    self-consistency for image   5
     Message from routine setup:
     using ibrav=0 with symmetry is DISCOURAGED, use correct ibrav instead

     activation energy (->) =   1.163947 eV
     activation energy (<-) =   0.268693 eV

     image        energy (eV)        error (eV/A)        frozen

         1    -133597.0757107            0.337218            F
         2    -133596.4248978            0.732122            F
         3    -133595.9117636            0.457763            F
         4    -133596.1741935            0.540677            F
         5    -133596.1804561            0.482569            F

     path length          =  5.862 bohr
     inter-image distance =  1.465 bohr

     ------------------------------ iteration  75 ------------------------------

     tcpu =  10779.3    self-consistency for image   1
     Message from routine setup:
     using ibrav=0 with symmetry is DISCOURAGED, use correct ibrav instead
     tcpu =  10795.8    self-consistency for image   2
     Message from routine setup:
     using ibrav=0 with symmetry is DISCOURAGED, use correct ibrav instead
     tcpu =  10813.9    self-consistency for image   3
     Message from routine setup:
     using ibrav=0 with symmetry is DISCOURAGED, use correct ibrav instead
     tcpu =  10830.5    self-consistency for image   4
     Message from routine setup:
     using ibrav=0 with symmetry is DISCOURAGED, use correct ibrav instead
     tcpu =  10847.9    self-consistency for image   5
     Message from routine setup:
     using ibrav=0 with symmetry is DISCOURAGED, use correct ibrav instead

     activation energy (->) =   1.163124 eV
     activation energy (<-) =   0.268306 eV

     image        energy (eV)        error (eV/A)        frozen

         1    -133597.0761493            0.323111            F
         2    -133596.4254751            0.731467            F
         3    -133595.9130248            0.448206            F
         4    -133596.1754502            0.530766            F
         5    -133596.1813312            0.463758            F

     path length          =  5.862 bohr
     inter-image distance =  1.466 bohr

     ------------------------------ iteration  76 ------------------------------

     tcpu =  10865.9    self-consistency for image   1
     Message from routine setup:
     using ibrav=0 with symmetry is DISCOURAGED, use correct ibrav instead
     tcpu =  10882.9    self-consistency for image   2
     Message from routine setup:
     using ibrav=0 with symmetry is DISCOURAGED, use correct ibrav instead
     tcpu =  10900.8    self-consistency for image   3
     Message from routine setup:
     using ibrav=0 with symmetry is DISCOURAGED, use correct ibrav instead
     tcpu =  10920.7    self-consistency for image   4
     Message from routine setup:
     using ibrav=0 with symmetry is DISCOURAGED, use correct ibrav instead
     tcpu =  10938.4    self-consistency for image   5
     Message from routine setup:
     using ibrav=0 with symmetry is DISCOURAGED, use correct ibrav instead

     activation energy (->) =   1.162428 eV
     activation energy (<-) =   0.267991 eV

     image        energy (eV)        error (eV/A)        frozen

         1    -133597.0765235            0.325335            F
         2    -133596.4259801            0.730562            F
         3    -133595.9140959            0.450836            F
         4    -133596.1765349            0.533377            F
         5    -133596.1820869            0.468423            F

     path length          =  5.863 bohr
     inter-image distance =  1.466 bohr

     ------------------------------ iteration  77 ------------------------------

     tcpu =  10955.0    self-consistency for image   1
     Message from routine setup:
     using ibrav=0 with symmetry is DISCOURAGED, use correct ibrav instead
     tcpu =  10972.3    self-consistency for image   2
     Message from routine setup:
     using ibrav=0 with symmetry is DISCOURAGED, use correct ibrav instead
     tcpu =  10990.3    self-consistency for image   3
     Message from routine setup:
     using ibrav=0 with symmetry is DISCOURAGED, use correct ibrav instead
     tcpu =  11015.1    self-consistency for image   4
     Message from routine setup:
     using ibrav=0 with symmetry is DISCOURAGED, use correct ibrav instead
     tcpu =  11032.0    self-consistency for image   5
     Message from routine setup:
     using ibrav=0 with symmetry is DISCOURAGED, use correct ibrav instead

     activation energy (->) =   1.161333 eV
     activation energy (<-) =   0.267469 eV

     image        energy (eV)        error (eV/A)        frozen

         1    -133597.0770704            0.319128            F
         2    -133596.4267330            0.728777            F
         3    -133595.9157379            0.457416            F
         4    -133596.1781495            0.528925            F
         5    -133596.1832070            0.459345            F

     path length          =  5.864 bohr
     inter-image distance =  1.466 bohr

     ------------------------------ iteration  78 ------------------------------

     tcpu =  11048.5    self-consistency for image   1
     Message from routine setup:
     using ibrav=0 with symmetry is DISCOURAGED, use correct ibrav instead
     tcpu =  11085.2    self-consistency for image   2
     Message from routine setup:
     using ibrav=0 with symmetry is DISCOURAGED, use correct ibrav instead
     tcpu =  11122.1    self-consistency for image   3
     Message from routine setup:
     using ibrav=0 with symmetry is DISCOURAGED, use correct ibrav instead
     tcpu =  11156.6    self-consistency for image   4
     Message from routine setup:
     using ibrav=0 with symmetry is DISCOURAGED, use correct ibrav instead
     tcpu =  11189.5    self-consistency for image   5
     Message from routine setup:
     using ibrav=0 with symmetry is DISCOURAGED, use correct ibrav instead

     activation energy (->) =   1.154706 eV
     activation energy (<-) =   0.264329 eV

     image        energy (eV)        error (eV/A)        frozen

         1    -133597.0806030            0.335220            F
         2    -133596.4315743            0.719587            F
         3    -133595.9258974            0.456564            F
         4    -133596.1882678            0.539660            F
         5    -133596.1902268            0.480663            F

     path length          =  5.869 bohr
     inter-image distance =  1.467 bohr

     ------------------------------ iteration  79 ------------------------------

     tcpu =  11219.5    self-consistency for image   1
     Message from routine setup:
     using ibrav=0 with symmetry is DISCOURAGED, use correct ibrav instead
     tcpu =  11260.8    self-consistency for image   2
     Message from routine setup:
     using ibrav=0 with symmetry is DISCOURAGED, use correct ibrav instead
     tcpu =  11302.7    self-consistency for image   3
     Message from routine setup:
     using ibrav=0 with symmetry is DISCOURAGED, use correct ibrav instead
     tcpu =  11348.3    self-consistency for image   4
     Message from routine setup:
     using ibrav=0 with symmetry is DISCOURAGED, use correct ibrav instead
     tcpu =  11391.1    self-consistency for image   5
     Message from routine setup:
     using ibrav=0 with symmetry is DISCOURAGED, use correct ibrav instead

     activation energy (->) =   1.123847 eV
     activation energy (<-) =   0.249848 eV

     image        energy (eV)        error (eV/A)        frozen

         1    -133597.0969913            0.330439            F
         2    -133596.4538086            0.672192            F
         3    -133595.9731441            0.452690            F
         4    -133596.2353421            0.554862            F
         5    -133596.2229920            0.472270            F

     path length          =  5.892 bohr
     inter-image distance =  1.473 bohr

     ------------------------------ iteration  80 ------------------------------

     tcpu =  11431.5    self-consistency for image   1
     Message from routine setup:
     using ibrav=0 with symmetry is DISCOURAGED, use correct ibrav instead
     tcpu =  11475.0    self-consistency for image   2
     Message from routine setup:
     using ibrav=0 with symmetry is DISCOURAGED, use correct ibrav instead
     tcpu =  11520.6    self-consistency for image   3
     Message from routine setup:
     using ibrav=0 with symmetry is DISCOURAGED, use correct ibrav instead
     tcpu =  11566.6    self-consistency for image   4
     Message from routine setup:
     using ibrav=0 with symmetry is DISCOURAGED, use correct ibrav instead
     tcpu =  11614.7    self-consistency for image   5
     Message from routine setup:
     using ibrav=0 with symmetry is DISCOURAGED, use correct ibrav instead

     activation energy (->) =   1.090138 eV
     activation energy (<-) =   0.234241 eV

     image        energy (eV)        error (eV/A)        frozen

         1    -133597.1150464            0.324084            F
         2    -133596.4777018            0.616455            F
         3    -133596.0249084            0.446294            F
         4    -133596.2869373            0.570915            F
         5    -133596.2591491            0.461671            F

     path length          =  5.920 bohr
     inter-image distance =  1.480 bohr

     ------------------------------ iteration  81 ------------------------------

     tcpu =  11656.4    self-consistency for image   1
     Message from routine setup:
     using ibrav=0 with symmetry is DISCOURAGED, use correct ibrav instead
     tcpu =  11695.0    self-consistency for image   2
     Message from routine setup:
     using ibrav=0 with symmetry is DISCOURAGED, use correct ibrav instead
     tcpu =  11735.1    self-consistency for image   3
     Message from routine setup:
     using ibrav=0 with symmetry is DISCOURAGED, use correct ibrav instead
     tcpu =  11780.0    self-consistency for image   4
     Message from routine setup:
     using ibrav=0 with symmetry is DISCOURAGED, use correct ibrav instead
     tcpu =  11819.5    self-consistency for image   5
     Message from routine setup:
     using ibrav=0 with symmetry is DISCOURAGED, use correct ibrav instead

     activation energy (->) =   1.069313 eV
     activation energy (<-) =   0.224770 eV

     image        energy (eV)        error (eV/A)        frozen

         1    -133597.1262788            0.320745            F
         2    -133596.4922523            0.578671            F
         3    -133596.0569657            0.440629            F
         4    -133596.3189433            0.579579            F
         5    -133596.2817357            0.454385            F

     path length          =  5.939 bohr
     inter-image distance =  1.485 bohr

     ------------------------------ iteration  82 ------------------------------

     tcpu =  11858.3    self-consistency for image   1
     Message from routine setup:
     using ibrav=0 with symmetry is DISCOURAGED, use correct ibrav instead
     tcpu =  11886.0    self-consistency for image   2
     Message from routine setup:
     using ibrav=0 with symmetry is DISCOURAGED, use correct ibrav instead
     tcpu =  11917.6    self-consistency for image   3
     Message from routine setup:
     using ibrav=0 with symmetry is DISCOURAGED, use correct ibrav instead
     tcpu =  11946.7    self-consistency for image   4
     Message from routine setup:
     using ibrav=0 with symmetry is DISCOURAGED, use correct ibrav instead
     tcpu =  11978.6    self-consistency for image   5
     Message from routine setup:
     using ibrav=0 with symmetry is DISCOURAGED, use correct ibrav instead

     activation energy (->) =   1.066075 eV
     activation energy (<-) =   0.223311 eV

     image        energy (eV)        error (eV/A)        frozen

         1    -133597.1280247            0.319628            F
         2    -133596.4945011            0.572523            F
         3    -133596.0619496            0.440134            F
         4    -133596.3239228            0.580784            F
         5    -133596.2852601            0.452951            F

     path length          =  5.942 bohr
     inter-image distance =  1.485 bohr

     ------------------------------ iteration  83 ------------------------------

     tcpu =  12004.1    self-consistency for image   1
     Message from routine setup:
     using ibrav=0 with symmetry is DISCOURAGED, use correct ibrav instead
     tcpu =  12021.2    self-consistency for image   2
     Message from routine setup:
     using ibrav=0 with symmetry is DISCOURAGED, use correct ibrav instead
     tcpu =  12044.0    self-consistency for image   3
     Message from routine setup:
     using ibrav=0 with symmetry is DISCOURAGED, use correct ibrav instead
     tcpu =  12060.3    self-consistency for image   4
     Message from routine setup:
     using ibrav=0 with symmetry is DISCOURAGED, use correct ibrav instead
     tcpu =  12080.7    self-consistency for image   5
     Message from routine setup:
     using ibrav=0 with symmetry is DISCOURAGED, use correct ibrav instead

     activation energy (->) =   1.065406 eV
     activation energy (<-) =   0.223011 eV

     image        energy (eV)        error (eV/A)        frozen

         1    -133597.1284002            0.306925            F
         2    -133596.4949810            0.572241            F
         3    -133596.0629945            0.431951            F
         4    -133596.3249780            0.570952            F
         5    -133596.2860055            0.434835            F

     path length          =  5.942 bohr
     inter-image distance =  1.486 bohr

     ------------------------------ iteration  84 ------------------------------

     tcpu =  12097.3    self-consistency for image   1
     Message from routine setup:
     using ibrav=0 with symmetry is DISCOURAGED, use correct ibrav instead
     tcpu =  12113.3    self-consistency for image   2
     Message from routine setup:
     using ibrav=0 with symmetry is DISCOURAGED, use correct ibrav instead
     tcpu =  12131.7    self-consistency for image   3
     Message from routine setup:
     using ibrav=0 with symmetry is DISCOURAGED, use correct ibrav instead
     tcpu =  12151.5    self-consistency for image   4
     Message from routine setup:
     using ibrav=0 with symmetry is DISCOURAGED, use correct ibrav instead
     tcpu =  12168.7    self-consistency for image   5
     Message from routine setup:
     using ibrav=0 with symmetry is DISCOURAGED, use correct ibrav instead

     activation energy (->) =   1.064844 eV
     activation energy (<-) =   0.222768 eV

     image        energy (eV)        error (eV/A)        frozen

         1    -133597.1287084            0.309700            F
         2    -133596.4954086            0.570609            F
         3    -133596.0638642            0.434482            F
         4    -133596.3258752            0.574546            F
         5    -133596.2866319            0.439420            F

     path length          =  5.943 bohr
     inter-image distance =  1.486 bohr

     ------------------------------ iteration  85 ------------------------------

     tcpu =  12185.2    self-consistency for image   1
     Message from routine setup:
     using ibrav=0 with symmetry is DISCOURAGED, use correct ibrav instead
     tcpu =  12202.2    self-consistency for image   2
     Message from routine setup:
     using ibrav=0 with symmetry is DISCOURAGED, use correct ibrav instead
     tcpu =  12226.5    self-consistency for image   3
     Message from routine setup:
     using ibrav=0 with symmetry is DISCOURAGED, use correct ibrav instead
     tcpu =  12254.2    self-consistency for image   4
     Message from routine setup:
     using ibrav=0 with symmetry is DISCOURAGED, use correct ibrav instead
     tcpu =  12270.8    self-consistency for image   5
     Message from routine setup:
     using ibrav=0 with symmetry is DISCOURAGED, use correct ibrav instead

     activation energy (->) =   1.063895 eV
     activation energy (<-) =   0.222344 eV

     image        energy (eV)        error (eV/A)        frozen

         1    -133597.1291995            0.302096            F
         2    -133596.4961165            0.569137            F
         3    -133596.0653045            0.439282            F
         4    -133596.3273245            0.569031            F
         5    -133596.2876488            0.429476            F

     path length          =  5.944 bohr
     inter-image distance =  1.486 bohr

     ------------------------------ iteration  86 ------------------------------

     tcpu =  12288.2    self-consistency for image   1
     Message from routine setup:
     using ibrav=0 with symmetry is DISCOURAGED, use correct ibrav instead
     tcpu =  12319.9    self-consistency for image   2
     Message from routine setup:
     using ibrav=0 with symmetry is DISCOURAGED, use correct ibrav instead
     tcpu =  12353.7    self-consistency for image   3
     Message from routine setup:
     using ibrav=0 with symmetry is DISCOURAGED, use correct ibrav instead
     tcpu =  12389.5    self-consistency for image   4
     Message from routine setup:
     using ibrav=0 with symmetry is DISCOURAGED, use correct ibrav instead
     tcpu =  12421.8    self-consistency for image   5
     Message from routine setup:
     using ibrav=0 with symmetry is DISCOURAGED, use correct ibrav instead

     activation energy (->) =   1.058031 eV
     activation energy (<-) =   0.219734 eV

     image        energy (eV)        error (eV/A)        frozen

         1    -133597.1324340            0.319263            F
         2    -133596.5005782            0.559297            F
         3    -133596.0744028            0.437408            F
         4    -133596.3365739            0.582115            F
         5    -133596.2941364            0.450348            F

     path length          =  5.948 bohr
     inter-image distance =  1.487 bohr

     ------------------------------ iteration  87 ------------------------------

     tcpu =  12452.0    self-consistency for image   1
     Message from routine setup:
     using ibrav=0 with symmetry is DISCOURAGED, use correct ibrav instead
     tcpu =  12497.5    self-consistency for image   2
     Message from routine setup:
     using ibrav=0 with symmetry is DISCOURAGED, use correct ibrav instead
     tcpu =  12543.3    self-consistency for image   3
     Message from routine setup:
     using ibrav=0 with symmetry is DISCOURAGED, use correct ibrav instead
     tcpu =  12585.4    self-consistency for image   4
     Message from routine setup:
     using ibrav=0 with symmetry is DISCOURAGED, use correct ibrav instead
     tcpu =  12628.0    self-consistency for image   5
     Message from routine setup:
     using ibrav=0 with symmetry is DISCOURAGED, use correct ibrav instead

     activation energy (->) =   1.026035 eV
     activation energy (<-) =   0.205627 eV

     image        energy (eV)        error (eV/A)        frozen

         1    -133597.1500298            0.312684            F
         2    -133596.5246897            0.504139            F
         3    -133596.1239950            0.426730            F
         4    -133596.3869583            0.584852            F
         5    -133596.3296216            0.437553            F

     path length          =  5.976 bohr
     inter-image distance =  1.494 bohr

     ------------------------------ iteration  88 ------------------------------

     tcpu =  12673.2    self-consistency for image   1
     Message from routine setup:
     using ibrav=0 with symmetry is DISCOURAGED, use correct ibrav instead
     tcpu =  12719.5    self-consistency for image   2
     Message from routine setup:
     using ibrav=0 with symmetry is DISCOURAGED, use correct ibrav instead
