
     Program NEB v.7.2 starts on  6Nov2024 at 22:20:44 

     This program is part of the open-source Quantum ESPRESSO suite
     for quantum simulation of materials; please cite
         "P. Giannozzi et al., J. Phys.:Condens. Matter 21 395502 (2009);
         "P. Giannozzi et al., J. Phys.:Condens. Matter 29 465901 (2017);
         "P. Giannozzi et al., J. Chem. Phys. 152 154105 (2020);
          URL http://www.quantum-espresso.org", 
     in publications or presentations arising from this work. More details at
     http://www.quantum-espresso.org/quote

     Parallel version (MPI), running on    96 processors

     MPI processes distributed on     2 nodes
     160447 MiB available memory on the printing compute node when the environment starts
 

     Parsing file: neb.in
     Reading input from pw_1.in
Warning: card &CELL ignored
Warning: card   CELL_DYNAMICS='BFGS', ignored
Warning: card   PRESS=0.0, ignored
Warning: card   PRESS_CONV_THR=0.5, ignored
Warning: card / ignored
     Reading input from pw_2.in
Warning: card &CELL ignored
Warning: card   CELL_DYNAMICS='BFGS', ignored
Warning: card   PRESS=0.0, ignored
Warning: card   PRESS_CONV_THR=0.5, ignored
Warning: card / ignored

     initial path length           =  5.4725 bohr
     initial inter-image distance  =  1.3681 bohr
 
     string_method                 =    neb
     restart_mode                  =    from_scratch
     opt_scheme                    =    broyden
     num_of_images                 =    5
     nstep_path                    =    1000
     CI_scheme                     =    no-CI
     first_last_opt                =    T
     use_freezing                  =    F
     ds                            =    0.0756 a.u.
     k_max                         =    0.1000 a.u.
     k_min                         =    0.0050 a.u.
     suggested k_max               =  107.9285 a.u.
     suggested k_min               =    5.3964 a.u.
     path_thr                      =    0.0010 eV / A

     ------------------------------ iteration   1 ------------------------------

     tcpu =      0.5    self-consistency for image   1
     Message from routine setup:
     using ibrav=0 with symmetry is DISCOURAGED, use correct ibrav instead
     tcpu =     47.8    self-consistency for image   2
     Message from routine setup:
     using ibrav=0 with symmetry is DISCOURAGED, use correct ibrav instead
     tcpu =    100.7    self-consistency for image   3
     Message from routine setup:
     using ibrav=0 with symmetry is DISCOURAGED, use correct ibrav instead
     tcpu =    157.0    self-consistency for image   4
     Message from routine setup:
     using ibrav=0 with symmetry is DISCOURAGED, use correct ibrav instead
     tcpu =    200.3    self-consistency for image   5
     Message from routine setup:
     using ibrav=0 with symmetry is DISCOURAGED, use correct ibrav instead

     activation energy (->) =   2.337891 eV
     activation energy (<-) =   1.206677 eV

     image        energy (eV)        error (eV/A)        frozen

         1    -133596.3164592            0.688936            F
         2    -133595.6759293            1.388326            F
         3    -133593.9785683            2.558166            F
         4    -133594.3209665            1.938489            F
         5    -133595.1852454            0.700574            F

     path length          =  5.473 bohr
     inter-image distance =  1.368 bohr

     ------------------------------ iteration   2 ------------------------------

     tcpu =    245.7    self-consistency for image   1
     Message from routine setup:
     using ibrav=0 with symmetry is DISCOURAGED, use correct ibrav instead
     tcpu =    262.3    self-consistency for image   2
     Message from routine setup:
     using ibrav=0 with symmetry is DISCOURAGED, use correct ibrav instead
     tcpu =    279.2    self-consistency for image   3
     Message from routine setup:
     using ibrav=0 with symmetry is DISCOURAGED, use correct ibrav instead
     tcpu =    296.6    self-consistency for image   4
     Message from routine setup:
     using ibrav=0 with symmetry is DISCOURAGED, use correct ibrav instead
     tcpu =    312.9    self-consistency for image   5
     Message from routine setup:
     using ibrav=0 with symmetry is DISCOURAGED, use correct ibrav instead

     activation energy (->) =   2.336891 eV
     activation energy (<-) =   1.205657 eV

     image        energy (eV)        error (eV/A)        frozen

         1    -133596.3170933            0.684767            F
         2    -133595.6764862            1.388224            F
         3    -133593.9802025            2.538488            F
         4    -133594.3224336            1.920774            F
         5    -133595.1858593            0.698181            F

     path length          =  5.472 bohr
     inter-image distance =  1.368 bohr

     ------------------------------ iteration   3 ------------------------------

     tcpu =    330.0    self-consistency for image   1
     Message from routine setup:
     using ibrav=0 with symmetry is DISCOURAGED, use correct ibrav instead
     tcpu =    345.6    self-consistency for image   2
     Message from routine setup:
     using ibrav=0 with symmetry is DISCOURAGED, use correct ibrav instead
     tcpu =    362.6    self-consistency for image   3
     Message from routine setup:
     using ibrav=0 with symmetry is DISCOURAGED, use correct ibrav instead
     tcpu =    379.2    self-consistency for image   4
     Message from routine setup:
     using ibrav=0 with symmetry is DISCOURAGED, use correct ibrav instead
     tcpu =    396.5    self-consistency for image   5
     Message from routine setup:
     using ibrav=0 with symmetry is DISCOURAGED, use correct ibrav instead

     activation energy (->) =   2.335883 eV
     activation energy (<-) =   1.204624 eV

     image        energy (eV)        error (eV/A)        frozen

         1    -133596.3177231            0.681703            F
         2    -133595.6770332            1.387616            F
         3    -133593.9818397            2.534714            F
         4    -133594.3238753            1.919934            F
         5    -133595.1864639            0.694435            F

     path length          =  5.472 bohr
     inter-image distance =  1.368 bohr

     ------------------------------ iteration   4 ------------------------------

     tcpu =    412.0    self-consistency for image   1
     Message from routine setup:
     using ibrav=0 with symmetry is DISCOURAGED, use correct ibrav instead
     tcpu =    428.0    self-consistency for image   2
     Message from routine setup:
     using ibrav=0 with symmetry is DISCOURAGED, use correct ibrav instead
     tcpu =    445.1    self-consistency for image   3
     Message from routine setup:
     using ibrav=0 with symmetry is DISCOURAGED, use correct ibrav instead
     tcpu =    461.2    self-consistency for image   4
     Message from routine setup:
     using ibrav=0 with symmetry is DISCOURAGED, use correct ibrav instead
     tcpu =    478.9    self-consistency for image   5
     Message from routine setup:
     using ibrav=0 with symmetry is DISCOURAGED, use correct ibrav instead

     activation energy (->) =   2.333918 eV
     activation energy (<-) =   1.202610 eV

     image        energy (eV)        error (eV/A)        frozen

         1    -133596.3189722            0.674944            F
         2    -133595.6781191            1.386390            F
         3    -133593.9850544            2.509614            F
         4    -133594.3267299            1.900571            F
         5    -133595.1876645            0.686958            F

     path length          =  5.472 bohr
     inter-image distance =  1.368 bohr

     ------------------------------ iteration   5 ------------------------------

     tcpu =    494.5    self-consistency for image   1
     Message from routine setup:
     using ibrav=0 with symmetry is DISCOURAGED, use correct ibrav instead
     tcpu =    515.4    self-consistency for image   2
     Message from routine setup:
     using ibrav=0 with symmetry is DISCOURAGED, use correct ibrav instead
     tcpu =    531.7    self-consistency for image   3
     Message from routine setup:
     using ibrav=0 with symmetry is DISCOURAGED, use correct ibrav instead
     tcpu =    557.8    self-consistency for image   4
     Message from routine setup:
     using ibrav=0 with symmetry is DISCOURAGED, use correct ibrav instead
     tcpu =    583.0    self-consistency for image   5
     Message from routine setup:
     using ibrav=0 with symmetry is DISCOURAGED, use correct ibrav instead

     activation energy (->) =   2.327949 eV
     activation energy (<-) =   1.196486 eV

     image        energy (eV)        error (eV/A)        frozen

         1    -133596.3226803            0.684798            F
         2    -133595.6813252            1.381684            F
         3    -133593.9947314            2.534902            F
         4    -133594.3352648            1.921163            F
         5    -133595.1912178            0.697294            F

     path length          =  5.472 bohr
     inter-image distance =  1.368 bohr

     ------------------------------ iteration   6 ------------------------------

     tcpu =    602.5    self-consistency for image   1
     Message from routine setup:
     using ibrav=0 with symmetry is DISCOURAGED, use correct ibrav instead
     tcpu =    627.3    self-consistency for image   2
     Message from routine setup:
     using ibrav=0 with symmetry is DISCOURAGED, use correct ibrav instead
     tcpu =    654.2    self-consistency for image   3
     Message from routine setup:
     using ibrav=0 with symmetry is DISCOURAGED, use correct ibrav instead
     tcpu =    689.5    self-consistency for image   4
     Message from routine setup:
     using ibrav=0 with symmetry is DISCOURAGED, use correct ibrav instead
     tcpu =    724.5    self-consistency for image   5
     Message from routine setup:
     using ibrav=0 with symmetry is DISCOURAGED, use correct ibrav instead

     activation energy (->) =   2.304579 eV
     activation energy (<-) =   1.172573 eV

     image        energy (eV)        error (eV/A)        frozen

         1    -133596.3373772            0.676640            F
         2    -133595.6940624            1.380313            F
         3    -133594.0327978            2.478543            F
         4    -133594.3690005            1.879837            F
         5    -133595.2053705            0.695061            F

     path length          =  5.472 bohr
     inter-image distance =  1.368 bohr

     ------------------------------ iteration   7 ------------------------------

     tcpu =    753.2    self-consistency for image   1
     Message from routine setup:
     using ibrav=0 with symmetry is DISCOURAGED, use correct ibrav instead
     tcpu =    791.8    self-consistency for image   2
     Message from routine setup:
     using ibrav=0 with symmetry is DISCOURAGED, use correct ibrav instead
     tcpu =    824.5    self-consistency for image   3
     Message from routine setup:
     using ibrav=0 with symmetry is DISCOURAGED, use correct ibrav instead
     tcpu =    870.7    self-consistency for image   4
     Message from routine setup:
     using ibrav=0 with symmetry is DISCOURAGED, use correct ibrav instead
     tcpu =    912.9    self-consistency for image   5
     Message from routine setup:
     using ibrav=0 with symmetry is DISCOURAGED, use correct ibrav instead

     activation energy (->) =   2.248355 eV
     activation energy (<-) =   1.115213 eV

     image        energy (eV)        error (eV/A)        frozen

         1    -133596.3731854            0.656514            F
         2    -133595.7250156            1.363557            F
         3    -133594.1248303            2.344432            F
         4    -133594.4509098            1.780427            F
         5    -133595.2400433            0.685717            F

     path length          =  5.472 bohr
     inter-image distance =  1.368 bohr

     ------------------------------ iteration   8 ------------------------------

     tcpu =    945.3    self-consistency for image   1
     Message from routine setup:
     using ibrav=0 with symmetry is DISCOURAGED, use correct ibrav instead
     tcpu =    982.6    self-consistency for image   2
     Message from routine setup:
     using ibrav=0 with symmetry is DISCOURAGED, use correct ibrav instead
     tcpu =   1016.8    self-consistency for image   3
     Message from routine setup:
     using ibrav=0 with symmetry is DISCOURAGED, use correct ibrav instead
     tcpu =   1058.0    self-consistency for image   4
     Message from routine setup:
     using ibrav=0 with symmetry is DISCOURAGED, use correct ibrav instead
     tcpu =   1099.6    self-consistency for image   5
     Message from routine setup:
     using ibrav=0 with symmetry is DISCOURAGED, use correct ibrav instead

     activation energy (->) =   2.187896 eV
     activation energy (<-) =   1.053865 eV

     image        energy (eV)        error (eV/A)        frozen

         1    -133596.4123980            0.633210            F
         2    -133595.7588020            1.343246            F
         3    -133594.2245021            2.194539            F
         4    -133594.5402209            1.672654            F
         5    -133595.2783675            0.681827            F

     path length          =  5.473 bohr
     inter-image distance =  1.368 bohr

     ------------------------------ iteration   9 ------------------------------

     tcpu =   1132.4    self-consistency for image   1
     Message from routine setup:
     using ibrav=0 with symmetry is DISCOURAGED, use correct ibrav instead
     tcpu =   1167.4    self-consistency for image   2
     Message from routine setup:
     using ibrav=0 with symmetry is DISCOURAGED, use correct ibrav instead
     tcpu =   1202.2    self-consistency for image   3
     Message from routine setup:
     using ibrav=0 with symmetry is DISCOURAGED, use correct ibrav instead
     tcpu =   1247.8    self-consistency for image   4
     Message from routine setup:
     using ibrav=0 with symmetry is DISCOURAGED, use correct ibrav instead
     tcpu =   1294.4    self-consistency for image   5
     Message from routine setup:
     using ibrav=0 with symmetry is DISCOURAGED, use correct ibrav instead

     activation energy (->) =   2.126518 eV
     activation energy (<-) =   0.992013 eV

     image        energy (eV)        error (eV/A)        frozen

         1    -133596.4530499            0.608687            F
         2    -133595.7937213            1.319502            F
         3    -133594.3265319            2.038635            F
         4    -133594.6324303            1.561550            F
         5    -133595.3185448            0.677437            F

     path length          =  5.476 bohr
     inter-image distance =  1.369 bohr

     ------------------------------ iteration  10 ------------------------------

     tcpu =   1327.8    self-consistency for image   1
     Message from routine setup:
     using ibrav=0 with symmetry is DISCOURAGED, use correct ibrav instead
     tcpu =   1352.0    self-consistency for image   2
     Message from routine setup:
     using ibrav=0 with symmetry is DISCOURAGED, use correct ibrav instead
     tcpu =   1378.4    self-consistency for image   3
     Message from routine setup:
     using ibrav=0 with symmetry is DISCOURAGED, use correct ibrav instead
     tcpu =   1412.4    self-consistency for image   4
     Message from routine setup:
     using ibrav=0 with symmetry is DISCOURAGED, use correct ibrav instead
     tcpu =   1442.3    self-consistency for image   5
     Message from routine setup:
     using ibrav=0 with symmetry is DISCOURAGED, use correct ibrav instead

     activation energy (->) =   2.112455 eV
     activation energy (<-) =   0.977929 eV

     image        energy (eV)        error (eV/A)        frozen

         1    -133596.4625184            0.603094            F
         2    -133595.8018469            1.313740            F
         3    -133594.3500634            2.002457            F
         4    -133594.6538577            1.535885            F
         5    -133595.3279927            0.675081            F

     path length          =  5.477 bohr
     inter-image distance =  1.369 bohr

     ------------------------------ iteration  11 ------------------------------

     tcpu =   1470.4    self-consistency for image   1
     Message from routine setup:
     using ibrav=0 with symmetry is DISCOURAGED, use correct ibrav instead
     tcpu =   1491.8    self-consistency for image   2
     Message from routine setup:
     using ibrav=0 with symmetry is DISCOURAGED, use correct ibrav instead
     tcpu =   1514.6    self-consistency for image   3
     Message from routine setup:
     using ibrav=0 with symmetry is DISCOURAGED, use correct ibrav instead
     tcpu =   1536.5    self-consistency for image   4
     Message from routine setup:
     using ibrav=0 with symmetry is DISCOURAGED, use correct ibrav instead
     tcpu =   1561.0    self-consistency for image   5
     Message from routine setup:
     using ibrav=0 with symmetry is DISCOURAGED, use correct ibrav instead

     activation energy (->) =   2.106961 eV
     activation energy (<-) =   0.972453 eV

     image        energy (eV)        error (eV/A)        frozen

         1    -133596.4662730            0.601061            F
         2    -133595.8050735            1.311275            F
         3    -133594.3593118            1.989039            F
         4    -133594.6623252            1.525558            F
         5    -133595.3317644            0.674749            F

     path length          =  5.477 bohr
     inter-image distance =  1.369 bohr

     ------------------------------ iteration  12 ------------------------------

     tcpu =   1582.4    self-consistency for image   1
     Message from routine setup:
     using ibrav=0 with symmetry is DISCOURAGED, use correct ibrav instead
     tcpu =   1602.2    self-consistency for image   2
     Message from routine setup:
     using ibrav=0 with symmetry is DISCOURAGED, use correct ibrav instead
     tcpu =   1619.7    self-consistency for image   3
     Message from routine setup:
     using ibrav=0 with symmetry is DISCOURAGED, use correct ibrav instead
     tcpu =   1642.6    self-consistency for image   4
     Message from routine setup:
     using ibrav=0 with symmetry is DISCOURAGED, use correct ibrav instead
     tcpu =   1667.1    self-consistency for image   5
     Message from routine setup:
     using ibrav=0 with symmetry is DISCOURAGED, use correct ibrav instead

     activation energy (->) =   2.102172 eV
     activation energy (<-) =   0.967708 eV

     image        energy (eV)        error (eV/A)        frozen

         1    -133596.4695582            0.596792            F
         2    -133595.8079183            1.305548            F
         3    -133594.3673858            1.976997            F
         4    -133594.6697837            1.516805            F
         5    -133595.3350942            0.674003            F

     path length          =  5.478 bohr
     inter-image distance =  1.369 bohr

     ------------------------------ iteration  13 ------------------------------

     tcpu =   1688.2    self-consistency for image   1
     Message from routine setup:
     using ibrav=0 with symmetry is DISCOURAGED, use correct ibrav instead
     tcpu =   1707.3    self-consistency for image   2
     Message from routine setup:
     using ibrav=0 with symmetry is DISCOURAGED, use correct ibrav instead
     tcpu =   1723.6    self-consistency for image   3
     Message from routine setup:
     using ibrav=0 with symmetry is DISCOURAGED, use correct ibrav instead
     tcpu =   1746.4    self-consistency for image   4
     Message from routine setup:
     using ibrav=0 with symmetry is DISCOURAGED, use correct ibrav instead
     tcpu =   1769.3    self-consistency for image   5
     Message from routine setup:
     using ibrav=0 with symmetry is DISCOURAGED, use correct ibrav instead

     activation energy (->) =   2.097825 eV
     activation energy (<-) =   0.963412 eV

     image        energy (eV)        error (eV/A)        frozen

         1    -133596.4725908            0.595347            F
         2    -133595.8105207            1.303982            F
         3    -133594.3747655            1.966279            F
         4    -133594.6766292            1.508608            F
         5    -133595.3381773            0.673570            F

     path length          =  5.478 bohr
     inter-image distance =  1.369 bohr

     ------------------------------ iteration  14 ------------------------------

     tcpu =   1789.7    self-consistency for image   1
     Message from routine setup:
     using ibrav=0 with symmetry is DISCOURAGED, use correct ibrav instead
     tcpu =   1818.0    self-consistency for image   2
     Message from routine setup:
     using ibrav=0 with symmetry is DISCOURAGED, use correct ibrav instead
     tcpu =   1845.2    self-consistency for image   3
     Message from routine setup:
     using ibrav=0 with symmetry is DISCOURAGED, use correct ibrav instead
     tcpu =   1877.8    self-consistency for image   4
     Message from routine setup:
     using ibrav=0 with symmetry is DISCOURAGED, use correct ibrav instead
     tcpu =   1913.2    self-consistency for image   5
     Message from routine setup:
     using ibrav=0 with symmetry is DISCOURAGED, use correct ibrav instead

     activation energy (->) =   2.079934 eV
     activation energy (<-) =   0.945839 eV

     image        energy (eV)        error (eV/A)        frozen

         1    -133596.4850891            0.589029            F
         2    -133595.8212698            1.301547            F
         3    -133594.4051547            1.921767            F
         4    -133594.7049530            1.474862            F
         5    -133595.3509939            0.672281            F

     path length          =  5.479 bohr
     inter-image distance =  1.370 bohr

     ------------------------------ iteration  15 ------------------------------

     tcpu =   1942.6    self-consistency for image   1
     Message from routine setup:
     using ibrav=0 with symmetry is DISCOURAGED, use correct ibrav instead
     tcpu =   1976.7    self-consistency for image   2
     Message from routine setup:
     using ibrav=0 with symmetry is DISCOURAGED, use correct ibrav instead
     tcpu =   2008.8    self-consistency for image   3
     Message from routine setup:
     using ibrav=0 with symmetry is DISCOURAGED, use correct ibrav instead
     tcpu =   2052.7    self-consistency for image   4
     Message from routine setup:
     using ibrav=0 with symmetry is DISCOURAGED, use correct ibrav instead
     tcpu =   2090.8    self-consistency for image   5
     Message from routine setup:
     using ibrav=0 with symmetry is DISCOURAGED, use correct ibrav instead

     activation energy (->) =   2.037319 eV
     activation energy (<-) =   0.904185 eV

     image        energy (eV)        error (eV/A)        frozen

         1    -133596.5151730            0.571072            F
         2    -133595.8471091            1.284648            F
         3    -133594.4778539            1.815609            F
         4    -133594.7729411            1.393484            F
         5    -133595.3820390            0.669221            F

     path length          =  5.484 bohr
     inter-image distance =  1.371 bohr

     ------------------------------ iteration  16 ------------------------------

     tcpu =   2124.4    self-consistency for image   1
     Message from routine setup:
     using ibrav=0 with symmetry is DISCOURAGED, use correct ibrav instead
     tcpu =   2159.4    self-consistency for image   2
     Message from routine setup:
     using ibrav=0 with symmetry is DISCOURAGED, use correct ibrav instead
     tcpu =   2191.1    self-consistency for image   3
     Message from routine setup:
     using ibrav=0 with symmetry is DISCOURAGED, use correct ibrav instead
     tcpu =   2228.5    self-consistency for image   4
     Message from routine setup:
     using ibrav=0 with symmetry is DISCOURAGED, use correct ibrav instead
     tcpu =   2269.8    self-consistency for image   5
     Message from routine setup:
     using ibrav=0 with symmetry is DISCOURAGED, use correct ibrav instead

     activation energy (->) =   1.993791 eV
     activation energy (<-) =   0.861990 eV

     image        energy (eV)        error (eV/A)        frozen

         1    -133596.5463313            0.550171            F
         2    -133595.8738028            1.265754            F
         3    -133594.5525408            1.702387            F
         4    -133594.8431685            1.307916            F
         5    -133595.4145309            0.665061            F

     path length          =  5.490 bohr
     inter-image distance =  1.372 bohr

     ------------------------------ iteration  17 ------------------------------

     tcpu =   2301.5    self-consistency for image   1
     Message from routine setup:
     using ibrav=0 with symmetry is DISCOURAGED, use correct ibrav instead
     tcpu =   2339.0    self-consistency for image   2
     Message from routine setup:
     using ibrav=0 with symmetry is DISCOURAGED, use correct ibrav instead
     tcpu =   2373.0    self-consistency for image   3
     Message from routine setup:
     using ibrav=0 with symmetry is DISCOURAGED, use correct ibrav instead
     tcpu =   2415.1    self-consistency for image   4
     Message from routine setup:
     using ibrav=0 with symmetry is DISCOURAGED, use correct ibrav instead
     tcpu =   2459.9    self-consistency for image   5
     Message from routine setup:
     using ibrav=0 with symmetry is DISCOURAGED, use correct ibrav instead

     activation energy (->) =   1.951547 eV
     activation energy (<-) =   0.821433 eV

     image        energy (eV)        error (eV/A)        frozen

         1    -133596.5770019            0.528852            F
         2    -133595.9000061            1.245510            F
         3    -133594.6254551            1.594438            F
         4    -133594.9121191            1.221517            F
         5    -133595.4468884            0.660728            F

     path length          =  5.497 bohr
     inter-image distance =  1.374 bohr

     ------------------------------ iteration  18 ------------------------------

     tcpu =   2492.4    self-consistency for image   1
     Message from routine setup:
     using ibrav=0 with symmetry is DISCOURAGED, use correct ibrav instead
     tcpu =   2516.7    self-consistency for image   2
     Message from routine setup:
     using ibrav=0 with symmetry is DISCOURAGED, use correct ibrav instead
     tcpu =   2541.1    self-consistency for image   3
     Message from routine setup:
     using ibrav=0 with symmetry is DISCOURAGED, use correct ibrav instead
     tcpu =   2571.3    self-consistency for image   4
     Message from routine setup:
     using ibrav=0 with symmetry is DISCOURAGED, use correct ibrav instead
     tcpu =   2598.6    self-consistency for image   5
     Message from routine setup:
     using ibrav=0 with symmetry is DISCOURAGED, use correct ibrav instead

     activation energy (->) =   1.942122 eV
     activation energy (<-) =   0.812469 eV

     image        energy (eV)        error (eV/A)        frozen

         1    -133596.5839272            0.524567            F
         2    -133595.9059311            1.240785            F
         3    -133594.6418057            1.570127            F
         4    -133594.9276532            1.201955            F
         5    -133595.4542747            0.658353            F

     path length          =  5.498 bohr
     inter-image distance =  1.375 bohr

     ------------------------------ iteration  19 ------------------------------

     tcpu =   2625.5    self-consistency for image   1
     Message from routine setup:
     using ibrav=0 with symmetry is DISCOURAGED, use correct ibrav instead
     tcpu =   2645.2    self-consistency for image   2
     Message from routine setup:
     using ibrav=0 with symmetry is DISCOURAGED, use correct ibrav instead
     tcpu =   2661.6    self-consistency for image   3
     Message from routine setup:
     using ibrav=0 with symmetry is DISCOURAGED, use correct ibrav instead
     tcpu =   2686.1    self-consistency for image   4
     Message from routine setup:
     using ibrav=0 with symmetry is DISCOURAGED, use correct ibrav instead
     tcpu =   2710.0    self-consistency for image   5
     Message from routine setup:
     using ibrav=0 with symmetry is DISCOURAGED, use correct ibrav instead

     activation energy (->) =   1.938354 eV
     activation energy (<-) =   0.808903 eV

     image        energy (eV)        error (eV/A)        frozen

         1    -133596.5867076            0.520631            F
         2    -133595.9083275            1.234554            F
         3    -133594.6483531            1.561679            F
         4    -133594.9339009            1.193869            F
         5    -133595.4572566            0.656308            F

     path length          =  5.499 bohr
     inter-image distance =  1.375 bohr

     ------------------------------ iteration  20 ------------------------------

     tcpu =   2730.1    self-consistency for image   1
     Message from routine setup:
     using ibrav=0 with symmetry is DISCOURAGED, use correct ibrav instead
     tcpu =   2746.0    self-consistency for image   2
     Message from routine setup:
     using ibrav=0 with symmetry is DISCOURAGED, use correct ibrav instead
     tcpu =   2763.0    self-consistency for image   3
     Message from routine setup:
     using ibrav=0 with symmetry is DISCOURAGED, use correct ibrav instead
     tcpu =   2785.1    self-consistency for image   4
     Message from routine setup:
     using ibrav=0 with symmetry is DISCOURAGED, use correct ibrav instead
     tcpu =   2808.8    self-consistency for image   5
     Message from routine setup:
     using ibrav=0 with symmetry is DISCOURAGED, use correct ibrav instead

     activation energy (->) =   1.934903 eV
     activation energy (<-) =   0.805691 eV

     image        energy (eV)        error (eV/A)        frozen

         1    -133596.5892529            0.494303            F
         2    -133595.9105362            1.232799            F
         3    -133594.6543495            1.553665            F
         4    -133594.9396784            1.187489            F
         5    -133595.4600405            0.656037            F

     path length          =  5.500 bohr
     inter-image distance =  1.375 bohr

     ------------------------------ iteration  21 ------------------------------

     tcpu =   2827.6    self-consistency for image   1
     Message from routine setup:
     using ibrav=0 with symmetry is DISCOURAGED, use correct ibrav instead
     tcpu =   2848.2    self-consistency for image   2
     Message from routine setup:
     using ibrav=0 with symmetry is DISCOURAGED, use correct ibrav instead
     tcpu =   2864.5    self-consistency for image   3
     Message from routine setup:
     using ibrav=0 with symmetry is DISCOURAGED, use correct ibrav instead
     tcpu =   2886.3    self-consistency for image   4
     Message from routine setup:
     using ibrav=0 with symmetry is DISCOURAGED, use correct ibrav instead
     tcpu =   2910.6    self-consistency for image   5
     Message from routine setup:
     using ibrav=0 with symmetry is DISCOURAGED, use correct ibrav instead

     activation energy (->) =   1.931550 eV
     activation energy (<-) =   0.802602 eV

     image        energy (eV)        error (eV/A)        frozen

         1    -133596.5917257            0.518744            F
         2    -133595.9126988            1.232016            F
         3    -133594.6601753            1.545963            F
         4    -133594.9453162            1.179603            F
         5    -133595.4627776            0.655755            F

     path length          =  5.500 bohr
     inter-image distance =  1.375 bohr

     ------------------------------ iteration  22 ------------------------------

     tcpu =   2928.7    self-consistency for image   1
     Message from routine setup:
     using ibrav=0 with symmetry is DISCOURAGED, use correct ibrav instead
     tcpu =   2958.6    self-consistency for image   2
     Message from routine setup:
     using ibrav=0 with symmetry is DISCOURAGED, use correct ibrav instead
     tcpu =   2984.1    self-consistency for image   3
     Message from routine setup:
     using ibrav=0 with symmetry is DISCOURAGED, use correct ibrav instead
     tcpu =   3019.5    self-consistency for image   4
     Message from routine setup:
     using ibrav=0 with symmetry is DISCOURAGED, use correct ibrav instead
     tcpu =   3050.5    self-consistency for image   5
     Message from routine setup:
     using ibrav=0 with symmetry is DISCOURAGED, use correct ibrav instead

     activation energy (->) =   1.916855 eV
     activation energy (<-) =   0.789110 eV

     image        energy (eV)        error (eV/A)        frozen

         1    -133596.6026250            0.514268            F
         2    -133595.9222224            1.230499            F
         3    -133594.6857701            1.512352            F
         4    -133594.9701172            1.149495            F
         5    -133595.4748806            0.655510            F

     path length          =  5.503 bohr
     inter-image distance =  1.376 bohr

     ------------------------------ iteration  23 ------------------------------

     tcpu =   3079.1    self-consistency for image   1
     Message from routine setup:
     using ibrav=0 with symmetry is DISCOURAGED, use correct ibrav instead
     tcpu =   3115.6    self-consistency for image   2
     Message from routine setup:
     using ibrav=0 with symmetry is DISCOURAGED, use correct ibrav instead
     tcpu =   3147.7    self-consistency for image   3
     Message from routine setup:
     using ibrav=0 with symmetry is DISCOURAGED, use correct ibrav instead
     tcpu =   3191.3    self-consistency for image   4
     Message from routine setup:
     using ibrav=0 with symmetry is DISCOURAGED, use correct ibrav instead
     tcpu =   3230.1    self-consistency for image   5
     Message from routine setup:
     using ibrav=0 with symmetry is DISCOURAGED, use correct ibrav instead

     activation energy (->) =   1.881930 eV
     activation energy (<-) =   0.757283 eV

     image        energy (eV)        error (eV/A)        frozen

         1    -133596.6285955            0.505836            F
         2    -133595.9449703            1.216604            F
         3    -133594.7466653            1.433250            F
         4    -133595.0292258            1.078121            F
         5    -133595.5039481            0.652132            F

     path length          =  5.510 bohr
     inter-image distance =  1.378 bohr

     ------------------------------ iteration  24 ------------------------------

     tcpu =   3263.5    self-consistency for image   1
     Message from routine setup:
     using ibrav=0 with symmetry is DISCOURAGED, use correct ibrav instead
     tcpu =   3297.8    self-consistency for image   2
     Message from routine setup:
     using ibrav=0 with symmetry is DISCOURAGED, use correct ibrav instead
     tcpu =   3329.9    self-consistency for image   3
     Message from routine setup:
     using ibrav=0 with symmetry is DISCOURAGED, use correct ibrav instead
     tcpu =   3372.9    self-consistency for image   4
     Message from routine setup:
     using ibrav=0 with symmetry is DISCOURAGED, use correct ibrav instead
     tcpu =   3410.1    self-consistency for image   5
     Message from routine setup:
     using ibrav=0 with symmetry is DISCOURAGED, use correct ibrav instead

     activation energy (->) =   1.847237 eV
     activation energy (<-) =   0.726028 eV

     image        energy (eV)        error (eV/A)        frozen

         1    -133596.6544371            0.496792            F
         2    -133595.9676114            1.201663            F
         3    -133594.8072004            1.358643            F
         4    -133595.0880156            1.006715            F
         5    -133595.5332287            0.647420            F

     path length          =  5.519 bohr
     inter-image distance =  1.380 bohr

     ------------------------------ iteration  25 ------------------------------

     tcpu =   3441.9    self-consistency for image   1
     Message from routine setup:
     using ibrav=0 with symmetry is DISCOURAGED, use correct ibrav instead
     tcpu =   3479.6    self-consistency for image   2
     Message from routine setup:
     using ibrav=0 with symmetry is DISCOURAGED, use correct ibrav instead
     tcpu =   3512.4    self-consistency for image   3
     Message from routine setup:
     using ibrav=0 with symmetry is DISCOURAGED, use correct ibrav instead
     tcpu =   3555.1    self-consistency for image   4
     Message from routine setup:
     using ibrav=0 with symmetry is DISCOURAGED, use correct ibrav instead
     tcpu =   3595.0    self-consistency for image   5
     Message from routine setup:
     using ibrav=0 with symmetry is DISCOURAGED, use correct ibrav instead

     activation energy (->) =   1.814725 eV
     activation energy (<-) =   0.697083 eV

     image        energy (eV)        error (eV/A)        frozen

         1    -133596.6786974            0.487928            F
         2    -133595.9888437            1.186645            F
         3    -133594.8639723            1.287696            F
         4    -133595.1431560            0.937725            F
         5    -133595.5610553            0.641021            F

     path length          =  5.528 bohr
     inter-image distance =  1.382 bohr

     ------------------------------ iteration  26 ------------------------------

     tcpu =   3627.6    self-consistency for image   1
     Message from routine setup:
     using ibrav=0 with symmetry is DISCOURAGED, use correct ibrav instead
     tcpu =   3650.0    self-consistency for image   2
     Message from routine setup:
     using ibrav=0 with symmetry is DISCOURAGED, use correct ibrav instead
     tcpu =   3674.8    self-consistency for image   3
     Message from routine setup:
     using ibrav=0 with symmetry is DISCOURAGED, use correct ibrav instead
     tcpu =   3703.4    self-consistency for image   4
     Message from routine setup:
     using ibrav=0 with symmetry is DISCOURAGED, use correct ibrav instead
     tcpu =   3731.4    self-consistency for image   5
     Message from routine setup:
     using ibrav=0 with symmetry is DISCOURAGED, use correct ibrav instead

     activation energy (->) =   1.807771 eV
     activation energy (<-) =   0.690975 eV

     image        energy (eV)        error (eV/A)        frozen

         1    -133596.6838530            0.486124            F
         2    -133595.9933954            1.183028            F
         3    -133594.8760822            1.273388            F
         4    -133595.1549245            0.922639            F
         5    -133595.5670574            0.641489            F

     path length          =  5.530 bohr
     inter-image distance =  1.382 bohr

     ------------------------------ iteration  27 ------------------------------

     tcpu =   3753.9    self-consistency for image   1
     Message from routine setup:
     using ibrav=0 with symmetry is DISCOURAGED, use correct ibrav instead
     tcpu =   3773.8    self-consistency for image   2
     Message from routine setup:
     using ibrav=0 with symmetry is DISCOURAGED, use correct ibrav instead
     tcpu =   3791.0    self-consistency for image   3
     Message from routine setup:
     using ibrav=0 with symmetry is DISCOURAGED, use correct ibrav instead
     tcpu =   3813.3    self-consistency for image   4
     Message from routine setup:
     using ibrav=0 with symmetry is DISCOURAGED, use correct ibrav instead
     tcpu =   3838.1    self-consistency for image   5
     Message from routine setup:
     using ibrav=0 with symmetry is DISCOURAGED, use correct ibrav instead

     activation energy (->) =   1.804964 eV
     activation energy (<-) =   0.688519 eV

     image        energy (eV)        error (eV/A)        frozen

         1    -133596.6859503            0.485566            F
         2    -133595.9952673            1.178906            F
         3    -133594.8809858            1.265578            F
         4    -133595.1597191            0.917258            F
         5    -133595.5695049            0.612758            F

     path length          =  5.531 bohr
     inter-image distance =  1.383 bohr

     ------------------------------ iteration  28 ------------------------------

     tcpu =   3854.2    self-consistency for image   1
     Message from routine setup:
     using ibrav=0 with symmetry is DISCOURAGED, use correct ibrav instead
     tcpu =   3871.0    self-consistency for image   2
     Message from routine setup:
     using ibrav=0 with symmetry is DISCOURAGED, use correct ibrav instead
     tcpu =   3887.1    self-consistency for image   3
     Message from routine setup:
     using ibrav=0 with symmetry is DISCOURAGED, use correct ibrav instead
     tcpu =   3909.6    self-consistency for image   4
     Message from routine setup:
     using ibrav=0 with symmetry is DISCOURAGED, use correct ibrav instead
     tcpu =   3932.1    self-consistency for image   5
     Message from routine setup:
     using ibrav=0 with symmetry is DISCOURAGED, use correct ibrav instead

     activation energy (->) =   1.802296 eV
     activation energy (<-) =   0.686188 eV

     image        energy (eV)        error (eV/A)        frozen

         1    -133596.6879228            0.460967            F
         2    -133595.9970482            1.178085            F
         3    -133594.8856273            1.262844            F
         4    -133595.1642644            0.912061            F
         5    -133595.5718149            0.611918            F

     path length          =  5.531 bohr
     inter-image distance =  1.383 bohr

     ------------------------------ iteration  29 ------------------------------

     tcpu =   3948.0    self-consistency for image   1
     Message from routine setup:
     using ibrav=0 with symmetry is DISCOURAGED, use correct ibrav instead
     tcpu =   3967.8    self-consistency for image   2
     Message from routine setup:
     using ibrav=0 with symmetry is DISCOURAGED, use correct ibrav instead
     tcpu =   3983.9    self-consistency for image   3
     Message from routine setup:
     using ibrav=0 with symmetry is DISCOURAGED, use correct ibrav instead
     tcpu =   4004.9    self-consistency for image   4
     Message from routine setup:
     using ibrav=0 with symmetry is DISCOURAGED, use correct ibrav instead
     tcpu =   4029.3    self-consistency for image   5
     Message from routine setup:
     using ibrav=0 with symmetry is DISCOURAGED, use correct ibrav instead

     activation energy (->) =   1.799551 eV
     activation energy (<-) =   0.683832 eV

     image        energy (eV)        error (eV/A)        frozen

         1    -133596.6899256            0.482305            F
         2    -133595.9988838            1.177862            F
         3    -133594.8903743            1.257497            F
         4    -133595.1689357            0.906776            F
         5    -133595.5742065            0.639953            F

     path length          =  5.532 bohr
     inter-image distance =  1.383 bohr

     ------------------------------ iteration  30 ------------------------------

     tcpu =   4052.5    self-consistency for image   1
     Message from routine setup:
     using ibrav=0 with symmetry is DISCOURAGED, use correct ibrav instead
     tcpu =   4085.3    self-consistency for image   2
     Message from routine setup:
     using ibrav=0 with symmetry is DISCOURAGED, use correct ibrav instead
     tcpu =   4114.7    self-consistency for image   3
     Message from routine setup:
     using ibrav=0 with symmetry is DISCOURAGED, use correct ibrav instead
     tcpu =   4149.5    self-consistency for image   4
     Message from routine setup:
     using ibrav=0 with symmetry is DISCOURAGED, use correct ibrav instead
     tcpu =   4180.7    self-consistency for image   5
     Message from routine setup:
     using ibrav=0 with symmetry is DISCOURAGED, use correct ibrav instead

     activation energy (->) =   1.786246 eV
     activation energy (<-) =   0.672427 eV

     image        energy (eV)        error (eV/A)        frozen

         1    -133596.6996762            0.479842            F
         2    -133596.0078197            1.175560            F
         3    -133594.9134303            1.235203            F
         4    -133595.1916074            0.880917            F
         5    -133595.5858572            0.637937            F

     path length          =  5.536 bohr
     inter-image distance =  1.384 bohr

     ------------------------------ iteration  31 ------------------------------

     tcpu =   4210.1    self-consistency for image   1
     Message from routine setup:
     using ibrav=0 with symmetry is DISCOURAGED, use correct ibrav instead
     tcpu =   4250.8    self-consistency for image   2
     Message from routine setup:
     using ibrav=0 with symmetry is DISCOURAGED, use correct ibrav instead
     tcpu =   4285.4    self-consistency for image   3
     Message from routine setup:
     using ibrav=0 with symmetry is DISCOURAGED, use correct ibrav instead
     tcpu =   4329.3    self-consistency for image   4
     Message from routine setup:
     using ibrav=0 with symmetry is DISCOURAGED, use correct ibrav instead
     tcpu =   4366.8    self-consistency for image   5
     Message from routine setup:
     using ibrav=0 with symmetry is DISCOURAGED, use correct ibrav instead

     activation energy (->) =   1.754497 eV
     activation energy (<-) =   0.645468 eV

     image        energy (eV)        error (eV/A)        frozen

         1    -133596.7228279            0.471324            F
         2    -133596.0290840            1.163726            F
         3    -133594.9683312            1.177479            F
         4    -133595.2455043            0.825896            F
         5    -133595.6137987            0.630791            F

     path length          =  5.546 bohr
     inter-image distance =  1.386 bohr

     ------------------------------ iteration  32 ------------------------------

     tcpu =   4399.0    self-consistency for image   1
     Message from routine setup:
     using ibrav=0 with symmetry is DISCOURAGED, use correct ibrav instead
     tcpu =   4436.3    self-consistency for image   2
     Message from routine setup:
     using ibrav=0 with symmetry is DISCOURAGED, use correct ibrav instead
     tcpu =   4472.7    self-consistency for image   3
     Message from routine setup:
     using ibrav=0 with symmetry is DISCOURAGED, use correct ibrav instead
     tcpu =   4515.2    self-consistency for image   4
     Message from routine setup:
     using ibrav=0 with symmetry is DISCOURAGED, use correct ibrav instead
     tcpu =   4553.0    self-consistency for image   5
     Message from routine setup:
     using ibrav=0 with symmetry is DISCOURAGED, use correct ibrav instead

     activation energy (->) =   1.723400 eV
     activation energy (<-) =   0.619456 eV

     image        energy (eV)        error (eV/A)        frozen

         1    -133596.7452895            0.462332            F
         2    -133596.0497734            1.152087            F
         3    -133595.0218896            1.121473            F
         4    -133595.2979425            0.800675            F
         5    -133595.6413461            0.628913            F

     path length          =  5.556 bohr
     inter-image distance =  1.389 bohr

     ------------------------------ iteration  33 ------------------------------

     tcpu =   4582.8    self-consistency for image   1
     Message from routine setup:
     using ibrav=0 with symmetry is DISCOURAGED, use correct ibrav instead
     tcpu =   4621.3    self-consistency for image   2
     Message from routine setup:
     using ibrav=0 with symmetry is DISCOURAGED, use correct ibrav instead
     tcpu =   4653.1    self-consistency for image   3
     Message from routine setup:
     using ibrav=0 with symmetry is DISCOURAGED, use correct ibrav instead
     tcpu =   4693.6    self-consistency for image   4
     Message from routine setup:
     using ibrav=0 with symmetry is DISCOURAGED, use correct ibrav instead
     tcpu =   4730.3    self-consistency for image   5
     Message from routine setup:
     using ibrav=0 with symmetry is DISCOURAGED, use correct ibrav instead

     activation energy (->) =   1.695286 eV
     activation energy (<-) =   0.596310 eV

     image        energy (eV)        error (eV/A)        frozen

         1    -133596.7654011            0.453936            F
         2    -133596.0683424            1.140587            F
         3    -133595.0701155            1.070575            F
         4    -133595.3450363            0.776414            F
         5    -133595.6664256            0.623624            F

     path length          =  5.566 bohr
     inter-image distance =  1.392 bohr

     ------------------------------ iteration  34 ------------------------------

     tcpu =   4761.0    self-consistency for image   1
     Message from routine setup:
     using ibrav=0 with symmetry is DISCOURAGED, use correct ibrav instead
     tcpu =   4782.8    self-consistency for image   2
     Message from routine setup:
     using ibrav=0 with symmetry is DISCOURAGED, use correct ibrav instead
     tcpu =   4803.1    self-consistency for image   3
     Message from routine setup:
     using ibrav=0 with symmetry is DISCOURAGED, use correct ibrav instead
     tcpu =   4832.4    self-consistency for image   4
     Message from routine setup:
     using ibrav=0 with symmetry is DISCOURAGED, use correct ibrav instead
     tcpu =   4856.4    self-consistency for image   5
     Message from routine setup:
     using ibrav=0 with symmetry is DISCOURAGED, use correct ibrav instead

     activation energy (->) =   1.689795 eV
     activation energy (<-) =   0.591862 eV

     image        energy (eV)        error (eV/A)        frozen

         1    -133596.7692895            0.452647            F
         2    -133596.0719659            1.137423            F
         3    -133595.0794940            1.059345            F
         4    -133595.3541924            0.772008            F
         5    -133595.6713563            0.622837            F

     path length          =  5.568 bohr
     inter-image distance =  1.392 bohr

     ------------------------------ iteration  35 ------------------------------

     tcpu =   4881.8    self-consistency for image   1
     Message from routine setup:
     using ibrav=0 with symmetry is DISCOURAGED, use correct ibrav instead
     tcpu =   4898.4    self-consistency for image   2
     Message from routine setup:
     using ibrav=0 with symmetry is DISCOURAGED, use correct ibrav instead
     tcpu =   4914.8    self-consistency for image   3
     Message from routine setup:
     using ibrav=0 with symmetry is DISCOURAGED, use correct ibrav instead
     tcpu =   4934.9    self-consistency for image   4
     Message from routine setup:
     using ibrav=0 with symmetry is DISCOURAGED, use correct ibrav instead
     tcpu =   4957.2    self-consistency for image   5
     Message from routine setup:
     using ibrav=0 with symmetry is DISCOURAGED, use correct ibrav instead

     activation energy (->) =   1.687552 eV
     activation energy (<-) =   0.590053 eV

     image        energy (eV)        error (eV/A)        frozen

         1    -133596.7708707            0.431416            F
         2    -133596.0734697            1.138898            F
         3    -133595.0833186            1.054363            F
         4    -133595.3579287            0.770651            F
         5    -133595.6733716            0.595746            F

     path length          =  5.569 bohr
     inter-image distance =  1.392 bohr

     ------------------------------ iteration  36 ------------------------------

     tcpu =   4973.6    self-consistency for image   1
     Message from routine setup:
     using ibrav=0 with symmetry is DISCOURAGED, use correct ibrav instead
     tcpu =   4990.7    self-consistency for image   2
     Message from routine setup:
     using ibrav=0 with symmetry is DISCOURAGED, use correct ibrav instead
     tcpu =   5007.4    self-consistency for image   3
     Message from routine setup:
     using ibrav=0 with symmetry is DISCOURAGED, use correct ibrav instead
     tcpu =   5026.9    self-consistency for image   4
     Message from routine setup:
     using ibrav=0 with symmetry is DISCOURAGED, use correct ibrav instead
     tcpu =   5049.9    self-consistency for image   5
     Message from routine setup:
     using ibrav=0 with symmetry is DISCOURAGED, use correct ibrav instead

     activation energy (->) =   1.685342 eV
     activation energy (<-) =   0.588317 eV

     image        energy (eV)        error (eV/A)        frozen

         1    -133596.7723405            0.429137            F
         2    -133596.0749150            1.138594            F
         3    -133595.0869981            1.049900            F
         4    -133595.3615379            0.766594            F
         5    -133595.6753154            0.594336            F

     path length          =  5.570 bohr
     inter-image distance =  1.393 bohr

     ------------------------------ iteration  37 ------------------------------

     tcpu =   5066.7    self-consistency for image   1
     Message from routine setup:
     using ibrav=0 with symmetry is DISCOURAGED, use correct ibrav instead
     tcpu =   5083.9    self-consistency for image   2
     Message from routine setup:
     using ibrav=0 with symmetry is DISCOURAGED, use correct ibrav instead
     tcpu =   5101.1    self-consistency for image   3
     Message from routine setup:
     using ibrav=0 with symmetry is DISCOURAGED, use correct ibrav instead
     tcpu =   5122.3    self-consistency for image   4
     Message from routine setup:
     using ibrav=0 with symmetry is DISCOURAGED, use correct ibrav instead
     tcpu =   5144.5    self-consistency for image   5
     Message from routine setup:
     using ibrav=0 with symmetry is DISCOURAGED, use correct ibrav instead

     activation energy (->) =   1.682921 eV
     activation energy (<-) =   0.586439 eV

     image        energy (eV)        error (eV/A)        frozen

         1    -133596.7738970            0.428118            F
         2    -133596.0764922            1.137706            F
         3    -133595.0909760            1.048426            F
         4    -133595.3654342            0.766962            F
         5    -133595.6774146            0.593359            F

     path length          =  5.571 bohr
     inter-image distance =  1.393 bohr

     ------------------------------ iteration  38 ------------------------------

     tcpu =   5161.1    self-consistency for image   1
     Message from routine setup:
     using ibrav=0 with symmetry is DISCOURAGED, use correct ibrav instead
     tcpu =   5192.3    self-consistency for image   2
     Message from routine setup:
     using ibrav=0 with symmetry is DISCOURAGED, use correct ibrav instead
     tcpu =   5220.6    self-consistency for image   3
     Message from routine setup:
     using ibrav=0 with symmetry is DISCOURAGED, use correct ibrav instead
     tcpu =   5255.7    self-consistency for image   4
     Message from routine setup:
     using ibrav=0 with symmetry is DISCOURAGED, use correct ibrav instead
     tcpu =   5287.0    self-consistency for image   5
     Message from routine setup:
     using ibrav=0 with symmetry is DISCOURAGED, use correct ibrav instead

     activation energy (->) =   1.671009 eV
     activation energy (<-) =   0.577088 eV

     image        energy (eV)        error (eV/A)        frozen

         1    -133596.7818912            0.446825            F
         2    -133596.0844074            1.131907            F
         3    -133595.1108821            1.030256            F
         4    -133595.3849657            0.757767            F
         5    -133595.6879705            0.619446            F

     path length          =  5.575 bohr
     inter-image distance =  1.394 bohr

     ------------------------------ iteration  39 ------------------------------

     tcpu =   5316.8    self-consistency for image   1
     Message from routine setup:
     using ibrav=0 with symmetry is DISCOURAGED, use correct ibrav instead
     tcpu =   5352.0    self-consistency for image   2
     Message from routine setup:
     using ibrav=0 with symmetry is DISCOURAGED, use correct ibrav instead
     tcpu =   5385.4    self-consistency for image   3
     Message from routine setup:
     using ibrav=0 with symmetry is DISCOURAGED, use correct ibrav instead
     tcpu =   5424.1    self-consistency for image   4
     Message from routine setup:
     using ibrav=0 with symmetry is DISCOURAGED, use correct ibrav instead
     tcpu =   5459.7    self-consistency for image   5
     Message from routine setup:
     using ibrav=0 with symmetry is DISCOURAGED, use correct ibrav instead

     activation energy (->) =   1.640947 eV
     activation energy (<-) =   0.553857 eV

     image        energy (eV)        error (eV/A)        frozen

         1    -133596.8017206            0.439419            F
         2    -133596.1042302            1.120905            F
         3    -133595.1607736            0.979713            F
         4    -133595.4338158            0.732588            F
         5    -133595.7146302            0.612808            F

     path length          =  5.587 bohr
     inter-image distance =  1.397 bohr

     ------------------------------ iteration  40 ------------------------------

     tcpu =   5491.6    self-consistency for image   1
     Message from routine setup:
     using ibrav=0 with symmetry is DISCOURAGED, use correct ibrav instead
     tcpu =   5529.2    self-consistency for image   2
     Message from routine setup:
     using ibrav=0 with symmetry is DISCOURAGED, use correct ibrav instead
     tcpu =   5563.9    self-consistency for image   3
     Message from routine setup:
     using ibrav=0 with symmetry is DISCOURAGED, use correct ibrav instead
     tcpu =   5601.8    self-consistency for image   4
     Message from routine setup:
     using ibrav=0 with symmetry is DISCOURAGED, use correct ibrav instead
     tcpu =   5643.1    self-consistency for image   5
     Message from routine setup:
     using ibrav=0 with symmetry is DISCOURAGED, use correct ibrav instead

     activation energy (->) =   1.611796 eV
     activation energy (<-) =   0.531734 eV

     image        energy (eV)        error (eV/A)        frozen

         1    -133596.8207583            0.431068            F
         2    -133596.1233224            1.110771            F
         3    -133595.2089619            0.929047            F
         4    -133595.4809455            0.708181            F
         5    -133595.7406957            0.609042            F

     path length          =  5.599 bohr
     inter-image distance =  1.400 bohr

     ------------------------------ iteration  41 ------------------------------

     tcpu =   5673.3    self-consistency for image   1
     Message from routine setup:
     using ibrav=0 with symmetry is DISCOURAGED, use correct ibrav instead
     tcpu =   5711.8    self-consistency for image   2
     Message from routine setup:
     using ibrav=0 with symmetry is DISCOURAGED, use correct ibrav instead
     tcpu =   5746.3    self-consistency for image   3
     Message from routine setup:
     using ibrav=0 with symmetry is DISCOURAGED, use correct ibrav instead
     tcpu =   5784.8    self-consistency for image   4
     Message from routine setup:
     using ibrav=0 with symmetry is DISCOURAGED, use correct ibrav instead
     tcpu =   5822.1    self-consistency for image   5
     Message from routine setup:
     using ibrav=0 with symmetry is DISCOURAGED, use correct ibrav instead

     activation energy (->) =   1.586635 eV
     activation energy (<-) =   0.512976 eV

     image        energy (eV)        error (eV/A)        frozen

         1    -133596.8370308            0.424042            F
         2    -133596.1396926            1.100408            F
         3    -133595.2503960            0.885081            F
         4    -133595.5214321            0.686527            F
         5    -133595.7633723            0.604625            F

     path length          =  5.610 bohr
     inter-image distance =  1.402 bohr

     ------------------------------ iteration  42 ------------------------------

     tcpu =   5853.3    self-consistency for image   1
     Message from routine setup:
     using ibrav=0 with symmetry is DISCOURAGED, use correct ibrav instead
     tcpu =   5874.6    self-consistency for image   2
     Message from routine setup:
     using ibrav=0 with symmetry is DISCOURAGED, use correct ibrav instead
     tcpu =   5893.8    self-consistency for image   3
     Message from routine setup:
     using ibrav=0 with symmetry is DISCOURAGED, use correct ibrav instead
     tcpu =   5922.6    self-consistency for image   4
     Message from routine setup:
     using ibrav=0 with symmetry is DISCOURAGED, use correct ibrav instead
     tcpu =   5946.6    self-consistency for image   5
     Message from routine setup:
     using ibrav=0 with symmetry is DISCOURAGED, use correct ibrav instead

     activation energy (->) =   1.581834 eV
     activation energy (<-) =   0.509459 eV

     image        energy (eV)        error (eV/A)        frozen

         1    -133596.8401045            0.423348            F
         2    -133596.1428171            1.096854            F
         3    -133595.2582710            0.875020            F
         4    -133595.5291309            0.681774            F
         5    -133595.7677299            0.605177            F

     path length          =  5.612 bohr
     inter-image distance =  1.403 bohr

     ------------------------------ iteration  43 ------------------------------

     tcpu =   5970.7    self-consistency for image   1
     Message from routine setup:
     using ibrav=0 with symmetry is DISCOURAGED, use correct ibrav instead
     tcpu =   5986.9    self-consistency for image   2
     Message from routine setup:
     using ibrav=0 with symmetry is DISCOURAGED, use correct ibrav instead
     tcpu =   6004.8    self-consistency for image   3
     Message from routine setup:
     using ibrav=0 with symmetry is DISCOURAGED, use correct ibrav instead
     tcpu =   6023.9    self-consistency for image   4
     Message from routine setup:
     using ibrav=0 with symmetry is DISCOURAGED, use correct ibrav instead
     tcpu =   6041.0    self-consistency for image   5
     Message from routine setup:
     using ibrav=0 with symmetry is DISCOURAGED, use correct ibrav instead

     activation energy (->) =   1.580080 eV
     activation energy (<-) =   0.508219 eV

     image        energy (eV)        error (eV/A)        frozen

         1    -133596.8412996            0.401681            F
         2    -133596.1440458            1.099687            F
         3    -133595.2612193            0.822671            F
         4    -133595.5320876            0.640109            F
         5    -133595.7694385            0.579443            F

     path length          =  5.613 bohr
     inter-image distance =  1.403 bohr

     ------------------------------ iteration  44 ------------------------------

     tcpu =   6057.2    self-consistency for image   1
     Message from routine setup:
     using ibrav=0 with symmetry is DISCOURAGED, use correct ibrav instead
     tcpu =   6074.1    self-consistency for image   2
     Message from routine setup:
     using ibrav=0 with symmetry is DISCOURAGED, use correct ibrav instead
     tcpu =   6091.8    self-consistency for image   3
     Message from routine setup:
     using ibrav=0 with symmetry is DISCOURAGED, use correct ibrav instead
     tcpu =   6108.4    self-consistency for image   4
     Message from routine setup:
     using ibrav=0 with symmetry is DISCOURAGED, use correct ibrav instead
     tcpu =   6126.5    self-consistency for image   5
     Message from routine setup:
     using ibrav=0 with symmetry is DISCOURAGED, use correct ibrav instead

     activation energy (->) =   1.578345 eV
     activation energy (<-) =   0.506990 eV

     image        energy (eV)        error (eV/A)        frozen

         1    -133596.8423754            0.403384            F
         2    -133596.1452006            1.099010            F
         3    -133595.2640302            0.831502            F
         4    -133595.5348031            0.646979            F
         5    -133595.7710205            0.583322            F

     path length          =  5.613 bohr
     inter-image distance =  1.403 bohr

     ------------------------------ iteration  45 ------------------------------

     tcpu =   6142.3    self-consistency for image   1
     Message from routine setup:
     using ibrav=0 with symmetry is DISCOURAGED, use correct ibrav instead
     tcpu =   6162.5    self-consistency for image   2
     Message from routine setup:
     using ibrav=0 with symmetry is DISCOURAGED, use correct ibrav instead
     tcpu =   6179.8    self-consistency for image   3
     Message from routine setup:
     using ibrav=0 with symmetry is DISCOURAGED, use correct ibrav instead
     tcpu =   6198.9    self-consistency for image   4
     Message from routine setup:
     using ibrav=0 with symmetry is DISCOURAGED, use correct ibrav instead
     tcpu =   6221.7    self-consistency for image   5
     Message from routine setup:
     using ibrav=0 with symmetry is DISCOURAGED, use correct ibrav instead

     activation energy (->) =   1.576414 eV
     activation energy (<-) =   0.505662 eV

     image        energy (eV)        error (eV/A)        frozen

         1    -133596.8436377            0.421937            F
         2    -133596.1465445            1.098051            F
         3    -133595.2672233            0.821088            F
         4    -133595.5380361            0.677326            F
         5    -133595.7728857            0.602581            F

     path length          =  5.614 bohr
     inter-image distance =  1.404 bohr

     ------------------------------ iteration  46 ------------------------------

     tcpu =   6240.6    self-consistency for image   1
     Message from routine setup:
     using ibrav=0 with symmetry is DISCOURAGED, use correct ibrav instead
     tcpu =   6272.3    self-consistency for image   2
     Message from routine setup:
     using ibrav=0 with symmetry is DISCOURAGED, use correct ibrav instead
     tcpu =   6302.5    self-consistency for image   3
     Message from routine setup:
     using ibrav=0 with symmetry is DISCOURAGED, use correct ibrav instead
     tcpu =   6338.0    self-consistency for image   4
     Message from routine setup:
     using ibrav=0 with symmetry is DISCOURAGED, use correct ibrav instead
     tcpu =   6366.3    self-consistency for image   5
     Message from routine setup:
     using ibrav=0 with symmetry is DISCOURAGED, use correct ibrav instead

     activation energy (->) =   1.565007 eV
     activation energy (<-) =   0.497830 eV

     image        energy (eV)        error (eV/A)        frozen

         1    -133596.8508811            0.418419            F
         2    -133596.1543603            1.091269            F
         3    -133595.2858741            0.848509            F
         4    -133595.5564264            0.669169            F
         5    -133595.7837037            0.602512            F

     path length          =  5.619 bohr
     inter-image distance =  1.405 bohr

     ------------------------------ iteration  47 ------------------------------

     tcpu =   6397.4    self-consistency for image   1
     Message from routine setup:
     using ibrav=0 with symmetry is DISCOURAGED, use correct ibrav instead
     tcpu =   6435.2    self-consistency for image   2
     Message from routine setup:
     using ibrav=0 with symmetry is DISCOURAGED, use correct ibrav instead
     tcpu =   6469.6    self-consistency for image   3
     Message from routine setup:
     using ibrav=0 with symmetry is DISCOURAGED, use correct ibrav instead
     tcpu =   6511.0    self-consistency for image   4
     Message from routine setup:
     using ibrav=0 with symmetry is DISCOURAGED, use correct ibrav instead
     tcpu =   6550.9    self-consistency for image   5
     Message from routine setup:
     using ibrav=0 with symmetry is DISCOURAGED, use correct ibrav instead

     activation energy (->) =   1.534977 eV
     activation energy (<-) =   0.477568 eV

     image        energy (eV)        error (eV/A)        frozen

         1    -133596.8699262            0.410743            F
         2    -133596.1749176            1.079103            F
         3    -133595.3349492            0.800341            F
         4    -133595.6050203            0.641890            F
         5    -133595.8125172            0.595360            F

     path length          =  5.633 bohr
     inter-image distance =  1.408 bohr

     ------------------------------ iteration  48 ------------------------------

     tcpu =   6587.2    self-consistency for image   1
     Message from routine setup:
     using ibrav=0 with symmetry is DISCOURAGED, use correct ibrav instead
     tcpu =   6626.3    self-consistency for image   2
     Message from routine setup:
     using ibrav=0 with symmetry is DISCOURAGED, use correct ibrav instead
     tcpu =   6662.9    self-consistency for image   3
     Message from routine setup:
     using ibrav=0 with symmetry is DISCOURAGED, use correct ibrav instead
     tcpu =   6706.7    self-consistency for image   4
     Message from routine setup:
     using ibrav=0 with symmetry is DISCOURAGED, use correct ibrav instead
     tcpu =   6744.0    self-consistency for image   5
     Message from routine setup:
     using ibrav=0 with symmetry is DISCOURAGED, use correct ibrav instead

     activation energy (->) =   1.504646 eV
     activation energy (<-) =   0.457518 eV

     image        energy (eV)        error (eV/A)        frozen

         1    -133596.8889127            0.403022            F
         2    -133596.1954380            1.063949            F
         3    -133595.3842671            0.749901            F
         4    -133595.6538017            0.614639            F
         5    -133595.8417853            0.590201            F

     path length          =  5.648 bohr
     inter-image distance =  1.412 bohr

     ------------------------------ iteration  49 ------------------------------

     tcpu =   6778.3    self-consistency for image   1
     Message from routine setup:
     using ibrav=0 with symmetry is DISCOURAGED, use correct ibrav instead
     tcpu =   6817.0    self-consistency for image   2
     Message from routine setup:
     using ibrav=0 with symmetry is DISCOURAGED, use correct ibrav instead
     tcpu =   6851.2    self-consistency for image   3
     Message from routine setup:
     using ibrav=0 with symmetry is DISCOURAGED, use correct ibrav instead
     tcpu =   6892.4    self-consistency for image   4
     Message from routine setup:
     using ibrav=0 with symmetry is DISCOURAGED, use correct ibrav instead
     tcpu =   6934.6    self-consistency for image   5
     Message from routine setup:
     using ibrav=0 with symmetry is DISCOURAGED, use correct ibrav instead

     activation energy (->) =   1.480329 eV
     activation energy (<-) =   0.441765 eV

     image        energy (eV)        error (eV/A)        frozen

         1    -133596.9039730            0.395864            F
         2    -133596.2116798            1.051849            F
         3    -133595.4236443            0.708567            F
         4    -133595.6927115            0.592331            F
         5    -133595.8654092            0.584167            F

     path length          =  5.661 bohr
     inter-image distance =  1.415 bohr

     ------------------------------ iteration  50 ------------------------------

     tcpu =   6969.0    self-consistency for image   1
     Message from routine setup:
     using ibrav=0 with symmetry is DISCOURAGED, use correct ibrav instead
     tcpu =   6995.8    self-consistency for image   2
     Message from routine setup:
     using ibrav=0 with symmetry is DISCOURAGED, use correct ibrav instead
     tcpu =   7014.7    self-consistency for image   3
     Message from routine setup:
     using ibrav=0 with symmetry is DISCOURAGED, use correct ibrav instead
     tcpu =   7043.4    self-consistency for image   4
     Message from routine setup:
     using ibrav=0 with symmetry is DISCOURAGED, use correct ibrav instead
     tcpu =   7073.2    self-consistency for image   5
     Message from routine setup:
     using ibrav=0 with symmetry is DISCOURAGED, use correct ibrav instead

     activation energy (->) =   1.476297 eV
     activation energy (<-) =   0.439188 eV

     image        energy (eV)        error (eV/A)        frozen

         1    -133596.9064325            0.395019            F
         2    -133596.2143636            1.047948            F
         3    -133595.4301355            0.701425            F
         4    -133595.6991264            0.588710            F
         5    -133595.8693238            0.582783            F

     path length          =  5.663 bohr
     inter-image distance =  1.416 bohr

     ------------------------------ iteration  51 ------------------------------

     tcpu =   7095.0    self-consistency for image   1
     Message from routine setup:
     using ibrav=0 with symmetry is DISCOURAGED, use correct ibrav instead
     tcpu =   7111.6    self-consistency for image   2
     Message from routine setup:
     using ibrav=0 with symmetry is DISCOURAGED, use correct ibrav instead
     tcpu =   7128.0    self-consistency for image   3
     Message from routine setup:
     using ibrav=0 with symmetry is DISCOURAGED, use correct ibrav instead
     tcpu =   7145.2    self-consistency for image   4
     Message from routine setup:
     using ibrav=0 with symmetry is DISCOURAGED, use correct ibrav instead
     tcpu =   7162.4    self-consistency for image   5
     Message from routine setup:
     using ibrav=0 with symmetry is DISCOURAGED, use correct ibrav instead

     activation energy (->) =   1.474877 eV
     activation energy (<-) =   0.438326 eV

     image        energy (eV)        error (eV/A)        frozen

         1    -133596.9073306            0.375771            F
         2    -133596.2153637            1.050071            F
         3    -133595.4324541            0.662294            F
         4    -133595.7014523            0.553410            F
         5    -133595.8707806            0.558926            F

     path length          =  5.664 bohr
     inter-image distance =  1.416 bohr

     ------------------------------ iteration  52 ------------------------------

     tcpu =   7180.1    self-consistency for image   1
     Message from routine setup:
     using ibrav=0 with symmetry is DISCOURAGED, use correct ibrav instead
     tcpu =   7196.6    self-consistency for image   2
     Message from routine setup:
     using ibrav=0 with symmetry is DISCOURAGED, use correct ibrav instead
     tcpu =   7214.8    self-consistency for image   3
     Message from routine setup:
     using ibrav=0 with symmetry is DISCOURAGED, use correct ibrav instead
     tcpu =   7232.1    self-consistency for image   4
     Message from routine setup:
     using ibrav=0 with symmetry is DISCOURAGED, use correct ibrav instead
     tcpu =   7249.8    self-consistency for image   5
     Message from routine setup:
     using ibrav=0 with symmetry is DISCOURAGED, use correct ibrav instead

     activation energy (->) =   1.473522 eV
     activation energy (<-) =   0.437495 eV

     image        energy (eV)        error (eV/A)        frozen

         1    -133596.9081165            0.378064            F
         2    -133596.2162708            1.048722            F
         3    -133595.4345946            0.670926            F
         4    -133595.7035588            0.559961            F
         5    -133595.8720900            0.562675            F

     path length          =  5.664 bohr
     inter-image distance =  1.416 bohr

     ------------------------------ iteration  53 ------------------------------

     tcpu =   7266.1    self-consistency for image   1
     Message from routine setup:
     using ibrav=0 with symmetry is DISCOURAGED, use correct ibrav instead
     tcpu =   7285.6    self-consistency for image   2
     Message from routine setup:
     using ibrav=0 with symmetry is DISCOURAGED, use correct ibrav instead
     tcpu =   7303.2    self-consistency for image   3
     Message from routine setup:
     using ibrav=0 with symmetry is DISCOURAGED, use correct ibrav instead
     tcpu =   7319.9    self-consistency for image   4
     Message from routine setup:
     using ibrav=0 with symmetry is DISCOURAGED, use correct ibrav instead
     tcpu =   7341.7    self-consistency for image   5
     Message from routine setup:
     using ibrav=0 with symmetry is DISCOURAGED, use correct ibrav instead

     activation energy (->) =   1.471890 eV
     activation energy (<-) =   0.436496 eV

     image        energy (eV)        error (eV/A)        frozen

         1    -133596.9091158            0.394394            F
         2    -133596.2174152            1.048029            F
         3    -133595.4372255            0.661234            F
         4    -133595.7062173            0.585428            F
         5    -133595.8737212            0.557907            F

     path length          =  5.665 bohr
     inter-image distance =  1.416 bohr

     ------------------------------ iteration  54 ------------------------------

     tcpu =   7358.6    self-consistency for image   1
     Message from routine setup:
     using ibrav=0 with symmetry is DISCOURAGED, use correct ibrav instead
     tcpu =   7388.6    self-consistency for image   2
     Message from routine setup:
     using ibrav=0 with symmetry is DISCOURAGED, use correct ibrav instead
     tcpu =   7419.1    self-consistency for image   3
     Message from routine setup:
     using ibrav=0 with symmetry is DISCOURAGED, use correct ibrav instead
     tcpu =   7453.5    self-consistency for image   4
     Message from routine setup:
     using ibrav=0 with symmetry is DISCOURAGED, use correct ibrav instead
     tcpu =   7485.9    self-consistency for image   5
     Message from routine setup:
     using ibrav=0 with symmetry is DISCOURAGED, use correct ibrav instead

     activation energy (->) =   1.461324 eV
     activation energy (<-) =   0.430075 eV

     image        energy (eV)        error (eV/A)        frozen

         1    -133596.9153629            0.391161            F
         2    -133596.2246791            1.040214            F
[...]
     tcpu =  15662.1    self-consistency for image   5
     Message from routine setup:
     using ibrav=0 with symmetry is DISCOURAGED, use correct ibrav instead

     activation energy (->) =   0.770039 eV
     activation energy (<-) =   0.098826 eV

     image        energy (eV)        error (eV/A)        frozen

         1    -133597.2984602            0.265929            F
         2    -133596.7341709            0.257855            F
         3    -133596.5284210            0.361270            F
         4    -133596.8097497            0.471327            F
         5    -133596.6272471            0.324229            F

     path length          =  6.259 bohr
     inter-image distance =  1.565 bohr

     ------------------------------ iteration 108 ------------------------------

     tcpu =  15678.6    self-consistency for image   1
     Message from routine setup:
     using ibrav=0 with symmetry is DISCOURAGED, use correct ibrav instead
     tcpu =  15696.8    self-consistency for image   2
     Message from routine setup:
     using ibrav=0 with symmetry is DISCOURAGED, use correct ibrav instead
     tcpu =  15713.6    self-consistency for image   3
     Message from routine setup:
     using ibrav=0 with symmetry is DISCOURAGED, use correct ibrav instead
     tcpu =  15730.2    self-consistency for image   4
     Message from routine setup:
     using ibrav=0 with symmetry is DISCOURAGED, use correct ibrav instead
     tcpu =  15746.0    self-consistency for image   5
     Message from routine setup:
     using ibrav=0 with symmetry is DISCOURAGED, use correct ibrav instead

     activation energy (->) =   0.769768 eV
     activation energy (<-) =   0.098719 eV

     image        energy (eV)        error (eV/A)        frozen

         1    -133597.2986274            0.268693            F
         2    -133596.7344368            0.259445            F
         3    -133596.5288591            0.363114            F
         4    -133596.8102274            0.473259            F
         5    -133596.6275779            0.324568            F

     path length          =  6.259 bohr
     inter-image distance =  1.565 bohr

     ------------------------------ iteration 109 ------------------------------

     tcpu =  15762.7    self-consistency for image   1
     Message from routine setup:
     using ibrav=0 with symmetry is DISCOURAGED, use correct ibrav instead
     tcpu =  15784.2    self-consistency for image   2
     Message from routine setup:
     using ibrav=0 with symmetry is DISCOURAGED, use correct ibrav instead
     tcpu =  15807.3    self-consistency for image   3
     Message from routine setup:
     using ibrav=0 with symmetry is DISCOURAGED, use correct ibrav instead
     tcpu =  15830.6    self-consistency for image   4
     Message from routine setup:
     using ibrav=0 with symmetry is DISCOURAGED, use correct ibrav instead
     tcpu =  15846.7    self-consistency for image   5
     Message from routine setup:
     using ibrav=0 with symmetry is DISCOURAGED, use correct ibrav instead

     activation energy (->) =   0.769168 eV
     activation energy (<-) =   0.098467 eV

     image        energy (eV)        error (eV/A)        frozen

         1    -133597.2990095            0.274808            F
         2    -133596.7350445            0.262656            F
         3    -133596.5298410            0.367254            F
         4    -133596.8112893            0.464797            F
         5    -133596.6283082            0.311044            F

     path length          =  6.260 bohr
     inter-image distance =  1.565 bohr

     ------------------------------ iteration 110 ------------------------------

     tcpu =  15863.7    self-consistency for image   1
     Message from routine setup:
     using ibrav=0 with symmetry is DISCOURAGED, use correct ibrav instead
     tcpu =  15901.3    self-consistency for image   2
     Message from routine setup:
     using ibrav=0 with symmetry is DISCOURAGED, use correct ibrav instead
     tcpu =  15936.3    self-consistency for image   3
     Message from routine setup:
     using ibrav=0 with symmetry is DISCOURAGED, use correct ibrav instead
     tcpu =  15971.2    self-consistency for image   4
     Message from routine setup:
     using ibrav=0 with symmetry is DISCOURAGED, use correct ibrav instead
     tcpu =  16004.4    self-consistency for image   5
     Message from routine setup:
     using ibrav=0 with symmetry is DISCOURAGED, use correct ibrav instead

     activation energy (->) =   0.765172 eV
     activation energy (<-) =   0.096816 eV

     image        energy (eV)        error (eV/A)        frozen

         1    -133597.3015432            0.275061            F
         2    -133596.7390829            0.262807            F
         3    -133596.5363709            0.366842            F
         4    -133596.8183975            0.474010            F
         5    -133596.6331871            0.329162            F

     path length          =  6.265 bohr
     inter-image distance =  1.566 bohr

     ------------------------------ iteration 111 ------------------------------

     tcpu =  16034.3    self-consistency for image   1
     Message from routine setup:
     using ibrav=0 with symmetry is DISCOURAGED, use correct ibrav instead
     tcpu =  16085.4    self-consistency for image   2
     Message from routine setup:
     using ibrav=0 with symmetry is DISCOURAGED, use correct ibrav instead
     tcpu =  16141.4    self-consistency for image   3
     Message from routine setup:
     using ibrav=0 with symmetry is DISCOURAGED, use correct ibrav instead
     tcpu =  16192.8    self-consistency for image   4
     Message from routine setup:
     using ibrav=0 with symmetry is DISCOURAGED, use correct ibrav instead
     tcpu =  16238.4    self-consistency for image   5
     Message from routine setup:
     using ibrav=0 with symmetry is DISCOURAGED, use correct ibrav instead

     activation energy (->) =   0.729402 eV
     activation energy (<-) =   0.082051 eV

     image        energy (eV)        error (eV/A)        frozen

         1    -133597.3245299            0.269260            F
         2    -133596.7751894            0.251178            F
         3    -133596.5951275            0.350026            F
         4    -133596.8824091            0.440594            F
         5    -133596.6771783            0.308091            F

     path length          =  6.315 bohr
     inter-image distance =  1.579 bohr

     ------------------------------ iteration 112 ------------------------------

     tcpu =  16291.4    self-consistency for image   1
     Message from routine setup:
     using ibrav=0 with symmetry is DISCOURAGED, use correct ibrav instead
     tcpu =  16340.4    self-consistency for image   2
     Message from routine setup:
     using ibrav=0 with symmetry is DISCOURAGED, use correct ibrav instead
     tcpu =  16392.3    self-consistency for image   3
     Message from routine setup:
     using ibrav=0 with symmetry is DISCOURAGED, use correct ibrav instead
     tcpu =  16440.8    self-consistency for image   4
     Message from routine setup:
     using ibrav=0 with symmetry is DISCOURAGED, use correct ibrav instead
     tcpu =  16487.2    self-consistency for image   5
     Message from routine setup:
     using ibrav=0 with symmetry is DISCOURAGED, use correct ibrav instead

     activation energy (->) =   0.692322 eV
     activation energy (<-) =   0.066762 eV

     image        energy (eV)        error (eV/A)        frozen

         1    -133597.3489770            0.261387            F
         2    -133596.8124802            0.243047            F
         3    -133596.6566548            0.326824            F
         4    -133596.9494886            0.400418            F
         5    -133596.7234169            0.287216            F

     path length          =  6.373 bohr
     inter-image distance =  1.593 bohr

     ------------------------------ iteration 113 ------------------------------

     tcpu =  16538.8    self-consistency for image   1
     Message from routine setup:
     using ibrav=0 with symmetry is DISCOURAGED, use correct ibrav instead
     tcpu =  16583.1    self-consistency for image   2
     Message from routine setup:
     using ibrav=0 with symmetry is DISCOURAGED, use correct ibrav instead
     tcpu =  16629.4    self-consistency for image   3
     Message from routine setup:
     using ibrav=0 with symmetry is DISCOURAGED, use correct ibrav instead
     tcpu =  16673.8    self-consistency for image   4
     Message from routine setup:
     using ibrav=0 with symmetry is DISCOURAGED, use correct ibrav instead
     tcpu =  16715.5    self-consistency for image   5
     Message from routine setup:
     using ibrav=0 with symmetry is DISCOURAGED, use correct ibrav instead

     activation energy (->) =   0.677813 eV
     activation energy (<-) =   0.060801 eV

     image        energy (eV)        error (eV/A)        frozen

         1    -133597.3587764            0.258480            F
         2    -133596.8270406            0.239655            F
         3    -133596.6809635            0.318259            F
         4    -133596.9759322            0.383185            F
         5    -133596.7417643            0.277405            F

     path length          =  6.399 bohr
     inter-image distance =  1.600 bohr

     ------------------------------ iteration 114 ------------------------------

     tcpu =  16756.4    self-consistency for image   1
     Message from routine setup:
     using ibrav=0 with symmetry is DISCOURAGED, use correct ibrav instead
     tcpu =  16791.4    self-consistency for image   2
     Message from routine setup:
     using ibrav=0 with symmetry is DISCOURAGED, use correct ibrav instead
     tcpu =  16824.6    self-consistency for image   3
     Message from routine setup:
     using ibrav=0 with symmetry is DISCOURAGED, use correct ibrav instead
     tcpu =  16855.6    self-consistency for image   4
     Message from routine setup:
     using ibrav=0 with symmetry is DISCOURAGED, use correct ibrav instead
     tcpu =  16884.4    self-consistency for image   5
     Message from routine setup:
     using ibrav=0 with symmetry is DISCOURAGED, use correct ibrav instead

     activation energy (->) =   0.675725 eV
     activation energy (<-) =   0.059939 eV

     image        energy (eV)        error (eV/A)        frozen

         1    -133597.3602103            0.258024            F
         2    -133596.8291482            0.238797            F
         3    -133596.6844849            0.316699            F
         4    -133596.9797666            0.380118            F
         5    -133596.7444235            0.276520            F

     path length          =  6.403 bohr
     inter-image distance =  1.601 bohr

     ------------------------------ iteration 115 ------------------------------

     tcpu =  16915.8    self-consistency for image   1
     Message from routine setup:
     using ibrav=0 with symmetry is DISCOURAGED, use correct ibrav instead
     tcpu =  16935.5    self-consistency for image   2
     Message from routine setup:
     using ibrav=0 with symmetry is DISCOURAGED, use correct ibrav instead
     tcpu =  16951.4    self-consistency for image   3
     Message from routine setup:
     using ibrav=0 with symmetry is DISCOURAGED, use correct ibrav instead
     tcpu =  16969.4    self-consistency for image   4
     Message from routine setup:
     using ibrav=0 with symmetry is DISCOURAGED, use correct ibrav instead
     tcpu =  16988.6    self-consistency for image   5
     Message from routine setup:
     using ibrav=0 with symmetry is DISCOURAGED, use correct ibrav instead

     activation energy (->) =   0.675499 eV
     activation energy (<-) =   0.059856 eV

     image        energy (eV)        error (eV/A)        frozen

         1    -133597.3603594            0.250729            F
         2    -133596.8293908            0.230926            F
         3    -133596.6848603            0.310341            F
         4    -133596.9801849            0.374110            F
         5    -133596.7447161            0.267514            F

     path length          =  6.403 bohr
     inter-image distance =  1.601 bohr

     ------------------------------ iteration 116 ------------------------------

     tcpu =  17004.8    self-consistency for image   1
     Message from routine setup:
     using ibrav=0 with symmetry is DISCOURAGED, use correct ibrav instead
     tcpu =  17024.9    self-consistency for image   2
     Message from routine setup:
     using ibrav=0 with symmetry is DISCOURAGED, use correct ibrav instead
     tcpu =  17040.9    self-consistency for image   3
     Message from routine setup:
     using ibrav=0 with symmetry is DISCOURAGED, use correct ibrav instead
     tcpu =  17057.6    self-consistency for image   4
     Message from routine setup:
     using ibrav=0 with symmetry is DISCOURAGED, use correct ibrav instead
     tcpu =  17073.7    self-consistency for image   5
     Message from routine setup:
     using ibrav=0 with symmetry is DISCOURAGED, use correct ibrav instead

     activation energy (->) =   0.675317 eV
     activation energy (<-) =   0.059786 eV

     image        energy (eV)        error (eV/A)        frozen

         1    -133597.3605000            0.252130            F
         2    -133596.8296072            0.233328            F
         3    -133596.6851827            0.309907            F
         4    -133596.9805496            0.374989            F
         5    -133596.7449686            0.269749            F

     path length          =  6.403 bohr
     inter-image distance =  1.601 bohr

     ------------------------------ iteration 117 ------------------------------

     tcpu =  17090.3    self-consistency for image   1
     Message from routine setup:
     using ibrav=0 with symmetry is DISCOURAGED, use correct ibrav instead
     tcpu =  17114.0    self-consistency for image   2
     Message from routine setup:
     using ibrav=0 with symmetry is DISCOURAGED, use correct ibrav instead
     tcpu =  17132.6    self-consistency for image   3
     Message from routine setup:
     using ibrav=0 with symmetry is DISCOURAGED, use correct ibrav instead
     tcpu =  17152.6    self-consistency for image   4
     Message from routine setup:
     using ibrav=0 with symmetry is DISCOURAGED, use correct ibrav instead
     tcpu =  17170.7    self-consistency for image   5
     Message from routine setup:
     using ibrav=0 with symmetry is DISCOURAGED, use correct ibrav instead

     activation energy (->) =   0.674891 eV
     activation energy (<-) =   0.059630 eV

     image        energy (eV)        error (eV/A)        frozen

         1    -133597.3608476            0.257993            F
         2    -133596.8301334            0.221902            F
         3    -133596.6859569            0.300233            F
         4    -133596.9814492            0.366777            F
         5    -133596.7455873            0.257810            F

     path length          =  6.404 bohr
     inter-image distance =  1.601 bohr

     ------------------------------ iteration 118 ------------------------------

     tcpu =  17186.5    self-consistency for image   1
     Message from routine setup:
     using ibrav=0 with symmetry is DISCOURAGED, use correct ibrav instead
     tcpu =  17221.6    self-consistency for image   2
     Message from routine setup:
     using ibrav=0 with symmetry is DISCOURAGED, use correct ibrav instead
     tcpu =  17254.1    self-consistency for image   3
     Message from routine setup:
     using ibrav=0 with symmetry is DISCOURAGED, use correct ibrav instead
     tcpu =  17283.7    self-consistency for image   4
     Message from routine setup:
     using ibrav=0 with symmetry is DISCOURAGED, use correct ibrav instead
     tcpu =  17316.7    self-consistency for image   5
     Message from routine setup:
     using ibrav=0 with symmetry is DISCOURAGED, use correct ibrav instead

     activation energy (->) =   0.672513 eV
     activation energy (<-) =   0.058725 eV

     image        energy (eV)        error (eV/A)        frozen

         1    -133597.3627100            0.257131            F
         2    -133596.8330785            0.237800            F
         3    -133596.6901974            0.314142            F
         4    -133596.9862899            0.376007            F
         5    -133596.7489221            0.274977            F

     path length          =  6.408 bohr
     inter-image distance =  1.602 bohr

     ------------------------------ iteration 119 ------------------------------

     tcpu =  17350.8    self-consistency for image   1
     Message from routine setup:
     using ibrav=0 with symmetry is DISCOURAGED, use correct ibrav instead
     tcpu =  17423.2    self-consistency for image   2
     Message from routine setup:
     using ibrav=0 with symmetry is DISCOURAGED, use correct ibrav instead
     tcpu =  17481.9    self-consistency for image   3
     Message from routine setup:
     using ibrav=0 with symmetry is DISCOURAGED, use correct ibrav instead
     tcpu =  17536.0    self-consistency for image   4
     Message from routine setup:
     using ibrav=0 with symmetry is DISCOURAGED, use correct ibrav instead
     tcpu =  17587.8    self-consistency for image   5
     Message from routine setup:
     using ibrav=0 with symmetry is DISCOURAGED, use correct ibrav instead

     activation energy (->) =   0.623022 eV
     activation energy (<-) =   0.040110 eV

     image        energy (eV)        error (eV/A)        frozen

         1    -133597.4033143            0.244859            F
         2    -133596.8948047            0.223391            F
         3    -133596.7802926            0.287796            F
         4    -133597.0894171            0.304694            F
         5    -133596.8204028            0.251048            F

     path length          =  6.511 bohr
     inter-image distance =  1.628 bohr

     ------------------------------ iteration 120 ------------------------------

     tcpu =  17634.3    self-consistency for image   1
     Message from routine setup:
     using ibrav=0 with symmetry is DISCOURAGED, use correct ibrav instead
     tcpu =  17699.6    self-consistency for image   2
     Message from routine setup:
     using ibrav=0 with symmetry is DISCOURAGED, use correct ibrav instead
     tcpu =  17759.1    self-consistency for image   3
     Message from routine setup:
     using ibrav=0 with symmetry is DISCOURAGED, use correct ibrav instead
     tcpu =  17811.4    self-consistency for image   4
     Message from routine setup:
     using ibrav=0 with symmetry is DISCOURAGED, use correct ibrav instead
     tcpu =  17863.4    self-consistency for image   5
     Message from routine setup:
     using ibrav=0 with symmetry is DISCOURAGED, use correct ibrav instead

     activation energy (->) =   0.582586 eV
     activation energy (<-) =   0.024650 eV

     image        energy (eV)        error (eV/A)        frozen

         1    -133597.4398126            0.233958            F
         2    -133596.9465596            0.207822            F
         3    -133596.8572266            0.263485            F
         4    -133597.1767353            0.291742            F
         5    -133596.8818762            0.228312            F

     path length          =  6.621 bohr
     inter-image distance =  1.655 bohr

     ------------------------------ iteration 121 ------------------------------

     tcpu =  17915.5    self-consistency for image   1
     Message from routine setup:
     using ibrav=0 with symmetry is DISCOURAGED, use correct ibrav instead
     tcpu =  17962.3    self-consistency for image   2
     Message from routine setup:
     using ibrav=0 with symmetry is DISCOURAGED, use correct ibrav instead
