
     Program NEB v.7.3.1 starts on 19Jun2025 at  3: 3:30 
        Git branch: HEAD
        Last git commit: 7fd60c9bc9fe7a7d1fe6f1049f4afba0eab9aeef
        Last git commit date: Thu Feb 29 10:18:05 2024 +0000
        Last git commit subject: Merge branch 'master_qe_7.3.1' into 'master'

     This program is part of the open-source Quantum ESPRESSO suite
     for quantum simulation of materials; please cite
         "P. Giannozzi et al., J. Phys.:Condens. Matter 21 395502 (2009);
         "P. Giannozzi et al., J. Phys.:Condens. Matter 29 465901 (2017);
         "P. Giannozzi et al., J. Chem. Phys. 152 154105 (2020);
          URL http://www.quantum-espresso.org", 
     in publications or presentations arising from this work. More details at
     http://www.quantum-espresso.org/quote

     Parallel version (MPI & OpenMP), running on      40 processor cores
     Number of MPI processes:                 4
     Threads/MPI process:                    10

     MPI processes distributed on     1 nodes
     1494275 MiB available memory on the printing compute node when the environment starts
 

     Parsing file: /input/neb.in
     Reading input from pw_1.in
Warning: card &CELL ignored
Warning: card   CELL_DYNAMICS = 'BFGS' ignored
Warning: card   PRESS = 0.0 ignored
Warning: card   PRESS_CONV_THR = 0.5 ignored
Warning: card / ignored
     Reading input from pw_2.in
Warning: card &CELL ignored
Warning: card   CELL_DYNAMICS = 'BFGS' ignored
Warning: card   PRESS = 0.0 ignored
Warning: card   PRESS_CONV_THR = 0.5 ignored
Warning: card / ignored

     initial path length           =  4.6558 bohr
     initial inter-image distance  =  0.5173 bohr
 
     string_method                 =    neb
     restart_mode                  =    from_scratch
     opt_scheme                    =    broyden
     num_of_images                 =    10
     nstep_path                    =    1000
     CI_scheme                     =    no-CI
     first_last_opt                =    T
     use_freezing                  =    F
     ds                            =    0.0756 a.u.
     k_max                         =    0.0131 a.u.
     k_min                         =    0.0050 a.u.
     suggested k_max               =  107.9285 a.u.
     suggested k_min               =   41.1941 a.u.
     path_thr                      =    0.0010 eV / A

     ------------------------------ iteration   1 ------------------------------

     tcpu =      5.0    self-consistency for image   1
     tcpu =    539.7    self-consistency for image   2
     tcpu =   1057.2    self-consistency for image   3
     tcpu =   1553.5    self-consistency for image   4
     tcpu =   1982.6    self-consistency for image   5
     tcpu =   2426.3    self-consistency for image   6
     tcpu =   2864.4    self-consistency for image   7
     tcpu =   3292.9    self-consistency for image   8
     tcpu =   3708.3    self-consistency for image   9
     tcpu =   4121.2    self-consistency for image  10

     activation energy (->) =   2.739702 eV
     activation energy (<-) =   2.212101 eV

     image        energy (eV)        error (eV/A)        frozen

         1    -177388.1447030            0.029906            F
         2    -177387.8055565            1.120873            F
         3    -177386.9848484            1.715760            F
         4    -177386.0791433            2.217151            F
         5    -177385.5156015            2.192972            F
         6    -177385.4050011            2.095739            F
         7    -177385.6652139            2.105134            F
         8    -177386.4666757            1.614484            F
         9    -177387.2593298            0.790079            F
        10    -177387.6171025            0.225779            F

     path length          =  4.656 bohr
     inter-image distance =  0.517 bohr

     ------------------------------ iteration   2 ------------------------------

     tcpu =   4513.6    self-consistency for image   1
     tcpu =   4909.9    self-consistency for image   2
     tcpu =   5296.4    self-consistency for image   3
     tcpu =   5707.2    self-consistency for image   4
     tcpu =   6114.0    self-consistency for image   5
     tcpu =   6540.8    self-consistency for image   6
     tcpu =   6940.7    self-consistency for image   7
     tcpu =   7346.3    self-consistency for image   8
     tcpu =   7751.5    self-consistency for image   9
     tcpu =   8148.9    self-consistency for image  10

     activation energy (->) =   2.738470 eV
     activation energy (<-) =   2.210902 eV

     image        energy (eV)        error (eV/A)        frozen

         1    -177388.1446848            0.029693            F
         2    -177387.8057844            1.118712            F
         3    -177386.9856130            1.712942            F
         4    -177386.0803889            2.210861            F
         5    -177385.5169868            2.184025            F
         6    -177385.4062147            2.091575            F
         7    -177385.6663135            2.094349            F
         8    -177386.4673894            1.611205            F
         9    -177387.2595273            0.789905            F
        10    -177387.6171165            0.224550            F

     path length          =  4.656 bohr
     inter-image distance =  0.517 bohr

     ------------------------------ iteration   3 ------------------------------

     tcpu =   8520.7    self-consistency for image   1
     tcpu =   8916.8    self-consistency for image   2
     tcpu =   9418.2    self-consistency for image   3
     tcpu =   9935.5    self-consistency for image   4
     tcpu =  10320.6    self-consistency for image   5
     tcpu =  10700.7    self-consistency for image   6
     tcpu =  11199.5    self-consistency for image   7
     tcpu =  11588.2    self-consistency for image   8
     tcpu =  11981.9    self-consistency for image   9
     tcpu =  12487.2    self-consistency for image  10

     activation energy (->) =   2.737290 eV
     activation energy (<-) =   2.209697 eV

     image        energy (eV)        error (eV/A)        frozen

         1    -177388.1447067            0.029959            F
         2    -177387.8060206            1.116975            F
         3    -177386.9863717            1.709853            F
         4    -177386.0816247            2.206211            F
         5    -177385.5183593            2.178180            F
         6    -177385.4074167            2.081820            F
         7    -177385.6674026            2.092386            F
         8    -177386.4680928            1.612459            F
         9    -177387.2597307            0.790108            F
        10    -177387.6171138            0.223811            F

     path length          =  4.656 bohr
     inter-image distance =  0.517 bohr

     ------------------------------ iteration   4 ------------------------------

     tcpu =  12846.5    self-consistency for image   1
     tcpu =  13205.9    self-consistency for image   2
     tcpu =  13684.6    self-consistency for image   3
     tcpu =  14089.7    self-consistency for image   4
     tcpu =  14494.0    self-consistency for image   5
     tcpu =  14974.9    self-consistency for image   6
     tcpu =  15476.6    self-consistency for image   7
     tcpu =  15881.0    self-consistency for image   8
     tcpu =  16258.4    self-consistency for image   9
     tcpu =  16739.6    self-consistency for image  10

     activation energy (->) =   2.734893 eV
     activation energy (<-) =   2.207343 eV

     image        energy (eV)        error (eV/A)        frozen

         1    -177388.1446933            0.029743            F
         2    -177387.8064959            1.114209            F
         3    -177386.9878782            1.704369            F
         4    -177386.0840761            2.194869            F
         5    -177385.5210795            2.163046            F
         6    -177385.4097999            2.068238            F
         7    -177385.6695587            2.078183            F
         8    -177386.4694896            1.610271            F
         9    -177387.2601253            0.790405            F
        10    -177387.6171427            0.223407            F

     path length          =  4.656 bohr
     inter-image distance =  0.517 bohr

     ------------------------------ iteration   5 ------------------------------

     tcpu =  17094.3    self-consistency for image   1
     tcpu =  17454.7    self-consistency for image   2
     tcpu =  17993.6    self-consistency for image   3
     tcpu =  18382.4    self-consistency for image   4
     tcpu =  18794.2    self-consistency for image   5
     tcpu =  19234.3    self-consistency for image   6
     tcpu =  19646.7    self-consistency for image   7
     tcpu =  20068.5    self-consistency for image   8
     tcpu =  20538.1    self-consistency for image   9
     tcpu =  21043.6    self-consistency for image  10

     activation energy (->) =   2.727825 eV
     activation energy (<-) =   2.200304 eV

     image        energy (eV)        error (eV/A)        frozen

         1    -177388.1447142            0.029734            F
         2    -177387.8078757            1.104537            F
         3    -177386.9923141            1.689286            F
         4    -177386.0913579            2.172515            F
         5    -177385.5291694            2.171367            F
         6    -177385.4168893            2.076075            F
         7    -177385.6759904            2.085238            F
         8    -177386.4735870            1.601435            F
         9    -177387.2612916            0.790733            F
        10    -177387.6171936            0.218727            F

     path length          =  4.656 bohr
     inter-image distance =  0.517 bohr

     ------------------------------ iteration   6 ------------------------------

     tcpu =  21427.9    self-consistency for image   1
     tcpu =  21799.0    self-consistency for image   2
     tcpu =  22315.5    self-consistency for image   3
     tcpu =  22872.3    self-consistency for image   4
     tcpu =  23320.8    self-consistency for image   5
     tcpu =  23767.5    self-consistency for image   6
     tcpu =  24227.5    self-consistency for image   7
     tcpu =  24714.7    self-consistency for image   8
     tcpu =  25145.8    self-consistency for image   9
     tcpu =  25544.0    self-consistency for image  10

     activation energy (->) =   2.700109 eV
     activation energy (<-) =   2.172792 eV

     image        energy (eV)        error (eV/A)        frozen

         1    -177388.1447300            0.029036            F
         2    -177387.8132754            1.073162            F
         3    -177387.0097333            1.605000            F
         4    -177386.1197058            2.064352            F
         5    -177385.5607270            2.116989            F
         6    -177385.4446211            2.024476            F
         7    -177385.7011749            2.039393            F
         8    -177386.4899265            1.578290            F
         9    -177387.2658996            0.782092            F
        10    -177387.6174135            0.206331            F

     path length          =  4.657 bohr
     inter-image distance =  0.517 bohr

     ------------------------------ iteration   7 ------------------------------

     tcpu =  25998.4    self-consistency for image   1
     tcpu =  26505.5    self-consistency for image   2
     tcpu =  26942.6    self-consistency for image   3
     tcpu =  27395.1    self-consistency for image   4
     tcpu =  27902.1    self-consistency for image   5
     tcpu =  28465.1    self-consistency for image   6
     tcpu =  29077.0    self-consistency for image   7
     tcpu =  29660.3    self-consistency for image   8
     tcpu =  30134.7    self-consistency for image   9
     tcpu =  30563.5    self-consistency for image  10

     activation energy (->) =   2.635374 eV
     activation energy (<-) =   2.108478 eV

     image        energy (eV)        error (eV/A)        frozen

         1    -177388.1448048            0.029068            F
         2    -177387.8257953            0.991815            F
         3    -177387.0498336            1.423647            F
         4    -177386.1850878            1.816416            F
         5    -177385.6339278            1.990065            F
         6    -177385.5094305            1.902617            F
         7    -177385.7603185            1.927233            F
         8    -177386.5283316            1.515725            F
         9    -177387.2768155            0.767086            F
        10    -177387.6179083            0.172374            F

     path length          =  4.660 bohr
     inter-image distance =  0.518 bohr

     ------------------------------ iteration   8 ------------------------------

     tcpu =  30962.1    self-consistency for image   1
     tcpu =  31341.3    self-consistency for image   2
     tcpu =  31773.6    self-consistency for image   3
     tcpu =  32230.4    self-consistency for image   4
     tcpu =  32723.0    self-consistency for image   5
     tcpu =  33239.0    self-consistency for image   6
     tcpu =  33757.7    self-consistency for image   7
     tcpu =  34400.5    self-consistency for image   8
     tcpu =  34895.0    self-consistency for image   9
     tcpu =  35328.8    self-consistency for image  10

     activation energy (->) =   2.569746 eV
     activation energy (<-) =   2.043295 eV

     image        energy (eV)        error (eV/A)        frozen

         1    -177388.1448735            0.028238            F
         2    -177387.8383636            0.905109            F
         3    -177387.0896612            1.327773            F
         4    -177386.2500708            1.713268            F
         5    -177385.7073530            1.853500            F
         6    -177385.5751270            1.770193            F
         7    -177385.8207865            1.807265            F
         8    -177386.5678170            1.447203            F
         9    -177387.2881597            0.749292            F
        10    -177387.6184217            0.143719            F

     path length          =  4.665 bohr
     inter-image distance =  0.518 bohr

     ------------------------------ iteration   9 ------------------------------

     tcpu =  35719.7    self-consistency for image   1
     tcpu =  36145.0    self-consistency for image   2
     tcpu =  36619.1    self-consistency for image   3
     tcpu =  37106.9    self-consistency for image   4
     tcpu =  37626.5    self-consistency for image   5
     tcpu =  38181.9    self-consistency for image   6
     tcpu =  38756.5    self-consistency for image   7
     tcpu =  39434.1    self-consistency for image   8
     tcpu =  39930.7    self-consistency for image   9
     tcpu =  40403.7    self-consistency for image  10

     activation energy (->) =   2.511175 eV
     activation energy (<-) =   1.985105 eV

     image        energy (eV)        error (eV/A)        frozen

         1    -177388.1449376            0.027353            F
         2    -177387.8494822            0.823443            F
         3    -177387.1244786            1.270841            F
         4    -177386.3068700            1.614477            F
         5    -177385.7721491            1.725371            F
         6    -177385.6337627            1.643369            F
         7    -177385.8752820            1.693856            F
         8    -177386.6036771            1.381064            F
         9    -177387.2985782            0.733249            F
        10    -177387.6188679            0.138554            F

     path length          =  4.672 bohr
     inter-image distance =  0.519 bohr

     ------------------------------ iteration  10 ------------------------------

     tcpu =  40826.4    self-consistency for image   1
     tcpu =  41254.3    self-consistency for image   2
     tcpu =  41687.4    self-consistency for image   3
     tcpu =  42137.5    self-consistency for image   4
     tcpu =  42605.7    self-consistency for image   5
     tcpu =  43072.7    self-consistency for image   6
     tcpu =  43550.1    self-consistency for image   7
     tcpu =  44012.7    self-consistency for image   8
     tcpu =  44450.3    self-consistency for image   9
     tcpu =  44904.3    self-consistency for image  10

     activation energy (->) =   2.498192 eV
     activation energy (<-) =   1.972233 eV

     image        energy (eV)        error (eV/A)        frozen

         1    -177388.1449386            0.026483            F
         2    -177387.8519394            0.797860            F
         3    -177387.1321147            1.258681            F
         4    -177386.3192874            1.593439            F
         5    -177385.7863889            1.695441            F
         6    -177385.6467470            1.613994            F
         7    -177385.8874537            1.667715            F
         8    -177386.6117610            1.366471            F
         9    -177387.3009721            0.728683            F
        10    -177387.6189801            0.142497            F

     path length          =  4.674 bohr
     inter-image distance =  0.519 bohr

     ------------------------------ iteration  11 ------------------------------

     tcpu =  45397.8    self-consistency for image   1
     tcpu =  45876.6    self-consistency for image   2
     tcpu =  46369.1    self-consistency for image   3
     tcpu =  46837.3    self-consistency for image   4
     tcpu =  47338.1    self-consistency for image   5
     tcpu =  47834.5    self-consistency for image   6
     tcpu =  48331.3    self-consistency for image   7
     tcpu =  48803.7    self-consistency for image   8
     tcpu =  49245.8    self-consistency for image   9
     tcpu =  49772.7    self-consistency for image  10

     activation energy (->) =   2.493049 eV
     activation energy (<-) =   1.967109 eV

     image        energy (eV)        error (eV/A)        frozen

         1    -177388.1449559            0.026083            F
         2    -177387.8529616            0.796825            F
         3    -177387.1351361            1.249718            F
         4    -177386.3241755            1.584932            F
         5    -177385.7920058            1.685459            F
         6    -177385.6519065            1.603244            F
         7    -177385.8923285            1.656320            F
         8    -177386.6150093            1.357567            F
         9    -177387.3019660            0.729162            F
        10    -177387.6190151            0.142722            F

     path length          =  4.675 bohr
     inter-image distance =  0.519 bohr

     ------------------------------ iteration  12 ------------------------------

     tcpu =  50301.3    self-consistency for image   1
     tcpu =  50692.6    self-consistency for image   2
     tcpu =  51127.1    self-consistency for image   3
     tcpu =  51648.3    self-consistency for image   4
     tcpu =  52152.8    self-consistency for image   5
     tcpu =  52574.4    self-consistency for image   6
     tcpu =  53008.4    self-consistency for image   7
     tcpu =  53537.1    self-consistency for image   8
     tcpu =  54073.5    self-consistency for image   9
     tcpu =  54583.4    self-consistency for image  10

     activation energy (->) =   2.488371 eV
     activation energy (<-) =   1.962453 eV

     image        energy (eV)        error (eV/A)        frozen

         1    -177388.1449700            0.025911            F
         2    -177387.8538986            0.789267            F
         3    -177387.1379385            1.245544            F
         4    -177386.3286044            1.576511            F
         5    -177385.7970840            1.674271            F
         6    -177385.6565995            1.591952            F
         7    -177385.8967675            1.647841            F
         8    -177386.6180753            1.352433            F
         9    -177387.3029119            0.728399            F
        10    -177387.6190527            0.143012            F

     path length          =  4.676 bohr
     inter-image distance =  0.520 bohr

     ------------------------------ iteration  13 ------------------------------

     tcpu =  55038.4    self-consistency for image   1
     tcpu =  55532.7    self-consistency for image   2
     tcpu =  56037.3    self-consistency for image   3
     tcpu =  56560.3    self-consistency for image   4
     tcpu =  57103.8    self-consistency for image   5
     tcpu =  57678.6    self-consistency for image   6
     tcpu =  58249.9    self-consistency for image   7
     tcpu =  58825.5    self-consistency for image   8
     tcpu =  59380.1    self-consistency for image   9
     tcpu =  59920.4    self-consistency for image  10

     activation energy (->) =   2.483508 eV
     activation energy (<-) =   1.957633 eV

     image        energy (eV)        error (eV/A)        frozen

         1    -177388.1449704            0.026020            F
         2    -177387.8548967            0.782291            F
         3    -177387.1408467            1.240222            F
         4    -177386.3331636            1.567731            F
         5    -177385.8023168            1.663349            F
         6    -177385.6614626            1.580881            F
         7    -177385.9014032            1.637612            F
         8    -177386.6212432            1.343712            F
         9    -177387.3039340            0.726423            F
        10    -177387.6190955            0.142422            F

     path length          =  4.677 bohr
     inter-image distance =  0.520 bohr

     ------------------------------ iteration  14 ------------------------------

     tcpu =  60403.8    self-consistency for image   1
     tcpu =  60886.4    self-consistency for image   2
     tcpu =  61399.3    self-consistency for image   3
     tcpu =  61897.3    self-consistency for image   4
     tcpu =  62413.9    self-consistency for image   5
     tcpu =  62928.3    self-consistency for image   6
     tcpu =  63425.8    self-consistency for image   7
     tcpu =  63896.8    self-consistency for image   8
     tcpu =  64389.2    self-consistency for image   9
     tcpu =  64854.0    self-consistency for image  10

     activation energy (->) =   2.463520 eV
     activation energy (<-) =   1.937800 eV

     image        energy (eV)        error (eV/A)        frozen

         1    -177388.1449883            0.025385            F
         2    -177387.8590240            0.755712            F
         3    -177387.1528262            1.218522            F
         4    -177386.3518806            1.531057            F
         5    -177385.8238023            1.616208            F
         6    -177385.6814681            1.534616            F
         7    -177385.9205479            1.592921            F
         8    -177386.6345566            1.319369            F
         9    -177387.3082075            0.716885            F
        10    -177387.6192681            0.141951            F

     path length          =  4.680 bohr
     inter-image distance =  0.520 bohr

     ------------------------------ iteration  15 ------------------------------

     tcpu =  65287.7    self-consistency for image   1
     tcpu =  65751.0    self-consistency for image   2
     tcpu =  66233.1    self-consistency for image   3
     tcpu =  66721.6    self-consistency for image   4
     tcpu =  67229.9    self-consistency for image   5
     tcpu =  67768.8    self-consistency for image   6
     tcpu =  68328.2    self-consistency for image   7
     tcpu =  68933.4    self-consistency for image   8
     tcpu =  69520.9    self-consistency for image   9
     tcpu =  70136.6    self-consistency for image  10

     activation energy (->) =   2.419230 eV
     activation energy (<-) =   1.893827 eV

     image        energy (eV)        error (eV/A)        frozen

         1    -177388.1450487            0.025647            F
         2    -177387.8681889            0.690660            F
         3    -177387.1792834            1.165321            F
         4    -177386.3932166            1.444330            F
         5    -177385.8713121            1.510352            F
         6    -177385.7258185            1.424663            F
         7    -177385.9633182            1.495701            F
         8    -177386.6643938            1.256390            F
         9    -177387.3178746            0.699006            F
        10    -177387.6196451            0.140462            F

     path length          =  4.690 bohr
     inter-image distance =  0.521 bohr

     ------------------------------ iteration  16 ------------------------------

     tcpu =  70630.4    self-consistency for image   1
     tcpu =  71061.0    self-consistency for image   2
     tcpu =  71529.9    self-consistency for image   3
     tcpu =  72011.5    self-consistency for image   4
     tcpu =  72507.1    self-consistency for image   5
     tcpu =  73023.3    self-consistency for image   6
     tcpu =  73588.1    self-consistency for image   7
     tcpu =  74272.7    self-consistency for image   8
     tcpu =  74804.4    self-consistency for image   9
     tcpu =  75274.6    self-consistency for image  10

     activation energy (->) =   2.378824 eV
     activation energy (<-) =   1.853737 eV

     image        energy (eV)        error (eV/A)        frozen

         1    -177388.1451020            0.024305            F
         2    -177387.8765716            0.628108            F
         3    -177387.2033235            1.112260            F
         4    -177386.4307428            1.361364            F
         5    -177385.9145302            1.408324            F
         6    -177385.7662781            1.319528            F
         7    -177386.0027761            1.400363            F
         8    -177386.6921129            1.193508            F
         9    -177387.3269515            0.681413            F
        10    -177387.6200153            0.140815            F

     path length          =  4.701 bohr
     inter-image distance =  0.522 bohr

     ------------------------------ iteration  17 ------------------------------

     tcpu =  75718.2    self-consistency for image   1
     tcpu =  76144.6    self-consistency for image   2
     tcpu =  76597.3    self-consistency for image   3
     tcpu =  77075.9    self-consistency for image   4
     tcpu =  77574.6    self-consistency for image   5
     tcpu =  78108.8    self-consistency for image   6
     tcpu =  78639.8    self-consistency for image   7
     tcpu =  79253.3    self-consistency for image   8
     tcpu =  79827.1    self-consistency for image   9
     tcpu =  80325.8    self-consistency for image  10

     activation energy (->) =   2.346299 eV
     activation energy (<-) =   1.821475 eV

     image        energy (eV)        error (eV/A)        frozen

         1    -177388.1451420            0.023503            F
         2    -177387.8833385            0.585552            F
         3    -177387.2226234            1.067765            F
         4    -177386.4608559            1.294576            F
         5    -177385.9492505            1.320765            F
         6    -177385.7988430            1.231156            F
         7    -177386.0349031            1.320053            F
         8    -177386.7148688            1.141526            F
         9    -177387.3344804            0.665844            F
        10    -177387.6203176            0.141030            F

     path length          =  4.712 bohr
     inter-image distance =  0.524 bohr

     ------------------------------ iteration  18 ------------------------------

     tcpu =  80742.9    self-consistency for image   1
     tcpu =  81156.6    self-consistency for image   2
     tcpu =  81635.6    self-consistency for image   3
     tcpu =  82104.1    self-consistency for image   4
     tcpu =  82561.2    self-consistency for image   5
     tcpu =  83020.4    self-consistency for image   6
     tcpu =  83506.0    self-consistency for image   7
     tcpu =  83966.2    self-consistency for image   8
     tcpu =  84409.7    self-consistency for image   9
     tcpu =  84891.3    self-consistency for image  10

     activation energy (->) =   2.339267 eV
     activation energy (<-) =   1.814503 eV

     image        energy (eV)        error (eV/A)        frozen

         1    -177388.1451494            0.023605            F
         2    -177387.8848261            0.583172            F
         3    -177387.2268298            1.059539            F
         4    -177386.4673514            1.279193            F
         5    -177385.9567293            1.302831            F
         6    -177385.8058820            1.211201            F
         7    -177386.0419061            1.301843            F
         8    -177386.7198965            1.130123            F
         9    -177387.3361545            0.666010            F
        10    -177387.6203846            0.143451            F

     path length          =  4.714 bohr
     inter-image distance =  0.524 bohr

     ------------------------------ iteration  19 ------------------------------

     tcpu =  85402.6    self-consistency for image   1
     tcpu =  85813.8    self-consistency for image   2
     tcpu =  86232.2    self-consistency for image   3
     tcpu =  86747.7    self-consistency for image   4
     tcpu =  87258.9    self-consistency for image   5
     tcpu =  87663.6    self-consistency for image   6
     tcpu =  88137.6    self-consistency for image   7
     tcpu =  88671.3    self-consistency for image   8
     tcpu =  89194.1    self-consistency for image   9
     tcpu =  89638.5    self-consistency for image  10

     activation energy (->) =   2.336325 eV
     activation energy (<-) =   1.811586 eV

     image        energy (eV)        error (eV/A)        frozen

         1    -177388.1451532            0.024567            F
         2    -177387.8854862            0.581832            F
         3    -177387.2286182            1.052357            F
         4    -177386.4700397            1.244316            F
         5    -177385.9598061            1.251200            F
         6    -177385.8088280            1.203624            F
         7    -177386.0448665            1.294225            F
         8    -177386.7220435            1.123092            F
         9    -177387.3369231            0.662027            F
        10    -177387.6204143            0.143033            F

     path length          =  4.715 bohr
     inter-image distance =  0.524 bohr

     ------------------------------ iteration  20 ------------------------------

     tcpu =  90147.0    self-consistency for image   1
     tcpu =  90665.7    self-consistency for image   2
     tcpu =  91096.9    self-consistency for image   3
     tcpu =  91512.2    self-consistency for image   4
     tcpu =  92061.3    self-consistency for image   5
     tcpu =  92493.9    self-consistency for image   6
     tcpu =  92934.1    self-consistency for image   7
     tcpu =  93516.5    self-consistency for image   8
     tcpu =  93933.1    self-consistency for image   9
     tcpu =  94424.1    self-consistency for image  10

     activation energy (->) =   2.333423 eV
     activation energy (<-) =   1.808717 eV

     image        energy (eV)        error (eV/A)        frozen

         1    -177388.1451563            0.024200            F
         2    -177387.8861588            0.580747            F
         3    -177387.2304336            1.047891            F
         4    -177386.4727387            1.241736            F
         5    -177385.9629003            1.286807            F
         6    -177385.8117334            1.195491            F
         7    -177386.0478114            1.286505            F
         8    -177386.7242339            1.117994            F
         9    -177387.3377072            0.661393            F
        10    -177387.6204507            0.143310            F

     path length          =  4.716 bohr
     inter-image distance =  0.524 bohr

     ------------------------------ iteration  21 ------------------------------

     tcpu =  94895.6    self-consistency for image   1
     tcpu =  95282.1    self-consistency for image   2
     tcpu =  95714.7    self-consistency for image   3
     tcpu =  96188.5    self-consistency for image   4
     tcpu =  96628.0    self-consistency for image   5
     tcpu =  97094.1    self-consistency for image   6
     tcpu =  97580.6    self-consistency for image   7
     tcpu =  98082.3    self-consistency for image   8
     tcpu =  98569.1    self-consistency for image   9
     tcpu =  99085.2    self-consistency for image  10

     activation energy (->) =   2.330028 eV
     activation energy (<-) =   1.805341 eV

     image        energy (eV)        error (eV/A)        frozen

         1    -177388.1451755            0.023513            F
         2    -177387.8869760            0.579316            F
         3    -177387.2325914            1.042256            F
         4    -177386.4759072            1.257409            F
         5    -177385.9664815            1.277668            F
         6    -177385.8151478            1.186758            F
         7    -177386.0512777            1.277551            F
         8    -177386.7268505            1.111468            F
         9    -177387.3386675            0.659835            F
        10    -177387.6204893            0.143432            F

     path length          =  4.717 bohr
     inter-image distance =  0.524 bohr

     ------------------------------ iteration  22 ------------------------------

     tcpu =  99582.5    self-consistency for image   1
     tcpu = 100077.2    self-consistency for image   2
     tcpu = 100548.2    self-consistency for image   3
     tcpu = 101026.1    self-consistency for image   4
     tcpu = 101502.4    self-consistency for image   5
     tcpu = 101967.7    self-consistency for image   6
     tcpu = 102473.8    self-consistency for image   7
     tcpu = 102958.9    self-consistency for image   8
     tcpu = 103439.5    self-consistency for image   9
     tcpu = 103879.8    self-consistency for image  10

     activation energy (->) =   2.315104 eV
     activation energy (<-) =   1.790574 eV

     image        energy (eV)        error (eV/A)        frozen

         1    -177388.1451915            0.022890            F
         2    -177387.8905893            0.573801            F
         3    -177387.2421171            1.019857            F
         4    -177386.4897573            1.223013            F
         5    -177385.9821600            1.236203            F
         6    -177385.8300872            1.145404            F
         7    -177386.0665381            1.236856            F
         8    -177386.7384265            1.082750            F
         9    -177387.3429412            0.648409            F
        10    -177387.6206609            0.142043            F

     path length          =  4.723 bohr
     inter-image distance =  0.525 bohr

     ------------------------------ iteration  23 ------------------------------

     tcpu = 104319.7    self-consistency for image   1
     tcpu = 104780.5    self-consistency for image   2
     tcpu = 105234.2    self-consistency for image   3
     tcpu = 105716.0    self-consistency for image   4
     tcpu = 106225.0    self-consistency for image   5
     tcpu = 106746.5    self-consistency for image   6
     tcpu = 107292.0    self-consistency for image   7
     tcpu = 107855.7    self-consistency for image   8
     tcpu = 108348.1    self-consistency for image   9
     tcpu = 108830.9    self-consistency for image  10

     activation energy (->) =   2.283677 eV
     activation energy (<-) =   1.759462 eV

     image        energy (eV)        error (eV/A)        frozen

         1    -177388.1452412            0.022404            F
         2    -177387.8982564            0.562310            F
         3    -177387.2622619            0.965449            F
         4    -177386.5190353            1.146192            F
         5    -177386.0152315            1.146489            F
         6    -177385.8615641            1.060802            F
         7    -177386.0988873            1.148202            F
         8    -177386.7630893            1.019556            F
         9    -177387.3521183            0.627831            F
        10    -177387.6210260            0.137764            F

     path length          =  4.738 bohr
     inter-image distance =  0.526 bohr

     ------------------------------ iteration  24 ------------------------------

     tcpu = 109275.0    self-consistency for image   1
     tcpu = 109710.6    self-consistency for image   2
     tcpu = 110177.6    self-consistency for image   3
     tcpu = 110659.2    self-consistency for image   4
     tcpu = 111154.8    self-consistency for image   5
     tcpu = 111680.1    self-consistency for image   6
     tcpu = 112210.0    self-consistency for image   7
     tcpu = 112775.7    self-consistency for image   8
     tcpu = 113277.8    self-consistency for image   9
     tcpu = 113815.8    self-consistency for image  10

     activation energy (->) =   2.256981 eV
     activation energy (<-) =   1.733057 eV

     image        energy (eV)        error (eV/A)        frozen

         1    -177388.1452870            0.021754            F
         2    -177387.9048331            0.550593            F
         3    -177387.2794587            0.916565            F
         4    -177386.5439864            1.079533            F
         5    -177386.0432974            1.066638            F
         6    -177385.8883058            0.982207            F
         7    -177386.1265954            1.068807            F
         8    -177386.7843685            0.961273            F
         9    -177387.3600873            0.610120            F
        10    -177387.6213632            0.135940            F

     path length          =  4.751 bohr
     inter-image distance =  0.528 bohr

     ------------------------------ iteration  25 ------------------------------

     tcpu = 114283.5    self-consistency for image   1
     tcpu = 114720.9    self-consistency for image   2
     tcpu = 115170.2    self-consistency for image   3
     tcpu = 115648.3    self-consistency for image   4
     tcpu = 116139.2    self-consistency for image   5
     tcpu = 116633.7    self-consistency for image   6
     tcpu = 117153.9    self-consistency for image   7
     tcpu = 117660.9    self-consistency for image   8
     tcpu = 118147.6    self-consistency for image   9
     tcpu = 118610.9    self-consistency for image  10

     activation energy (->) =   2.237598 eV
     activation energy (<-) =   1.713889 eV

     image        energy (eV)        error (eV/A)        frozen

         1    -177388.1453238            0.020985            F
         2    -177387.9096559            0.541104            F
         3    -177387.2920241            0.879809            F
         4    -177386.5621879            1.027650            F
         5    -177386.0636724            1.005449            F
         6    -177385.9077259            0.924894            F
         7    -177386.1468720            1.007363            F
         8    -177386.8000658            0.917512            F
         9    -177387.3660174            0.595787            F
        10    -177387.6216145            0.134046            F

     path length          =  4.763 bohr
     inter-image distance =  0.529 bohr

     ------------------------------ iteration  26 ------------------------------

     tcpu = 119034.8    self-consistency for image   1
     tcpu = 119478.9    self-consistency for image   2
     tcpu = 119923.5    self-consistency for image   3
     tcpu = 120359.0    self-consistency for image   4
     tcpu = 120830.3    self-consistency for image   5
     tcpu = 121317.9    self-consistency for image   6
     tcpu = 121879.3    self-consistency for image   7
     tcpu = 122438.9    self-consistency for image   8
     tcpu = 122944.4    self-consistency for image   9
     tcpu = 123463.4    self-consistency for image  10

     activation energy (->) =   2.233599 eV
     activation energy (<-) =   1.709932 eV

     image        energy (eV)        error (eV/A)        frozen

         1    -177388.1453327            0.021637            F
         2    -177387.9106757            0.538675            F
         3    -177387.2946514            0.872047            F
         4    -177386.5659558            1.016905            F
         5    -177386.0678660            0.994423            F
         6    -177385.9117335            0.913048            F
         7    -177386.1510725            0.994307            F
         8    -177386.8033523            0.907426            F
         9    -177387.3672745            0.595247            F
        10    -177387.6216651            0.134800            F

     path length          =  4.765 bohr
     inter-image distance =  0.529 bohr

     ------------------------------ iteration  27 ------------------------------

     tcpu = 123981.0    self-consistency for image   1
     tcpu = 124398.2    self-consistency for image   2
     tcpu = 124812.8    self-consistency for image   3
     tcpu = 125233.8    self-consistency for image   4
     tcpu = 125712.6    self-consistency for image   5
     tcpu = 126245.5    self-consistency for image   6
     tcpu = 126795.0    self-consistency for image   7
     tcpu = 127222.2    self-consistency for image   8
     tcpu = 127667.9    self-consistency for image   9
     tcpu = 128108.5    self-consistency for image  10

     activation energy (->) =   2.231864 eV
     activation energy (<-) =   1.708225 eV

     image        energy (eV)        error (eV/A)        frozen

         1    -177388.1453335            0.022386            F
         2    -177387.9111529            0.538066            F
         3    -177387.2958444            0.867524            F
         4    -177386.5676219            0.992800            F
         5    -177386.0696966            0.956164            F
         6    -177385.9134694            0.878422            F
         7    -177386.1529307            0.987713            F
         8    -177386.8048355            0.902176            F
         9    -177387.3678732            0.593027            F
        10    -177387.6216944            0.134920            F

     path length          =  4.766 bohr
     inter-image distance =  0.530 bohr

     ------------------------------ iteration  28 ------------------------------

     tcpu = 128495.9    self-consistency for image   1
     tcpu = 128979.8    self-consistency for image   2
     tcpu = 129494.9    self-consistency for image   3
     tcpu = 129916.1    self-consistency for image   4
     tcpu = 130401.7    self-consistency for image   5
     tcpu = 130836.3    self-consistency for image   6
     tcpu = 131251.7    self-consistency for image   7
     tcpu = 131752.0    self-consistency for image   8
     tcpu = 132269.8    self-consistency for image   9
     tcpu = 132751.9    self-consistency for image  10

     activation energy (->) =   2.230033 eV
     activation energy (<-) =   1.706408 eV

     image        energy (eV)        error (eV/A)        frozen

         1    -177388.1453448            0.022947            F
         2    -177387.9116749            0.536892            F
         3    -177387.2971294            0.863412            F
         4    -177386.5693927            0.986193            F
         5    -177386.0716286            0.953338            F
         6    -177385.9153122            0.880868            F
         7    -177386.1548642            0.952321            F
         8    -177386.8064388            0.897623            F
         9    -177387.3685251            0.591755            F
        10    -177387.6217201            0.134339            F

     path length          =  4.768 bohr
     inter-image distance =  0.530 bohr

     ------------------------------ iteration  29 ------------------------------

     tcpu = 133258.5    self-consistency for image   1
     tcpu = 133765.2    self-consistency for image   2
     tcpu = 134287.9    self-consistency for image   3
     tcpu = 134794.9    self-consistency for image   4
     tcpu = 135290.2    self-consistency for image   5
     tcpu = 135802.3    self-consistency for image   6
     tcpu = 136312.4    self-consistency for image   7
     tcpu = 136814.3    self-consistency for image   8
     tcpu = 137279.2    self-consistency for image   9
     tcpu = 137720.9    self-consistency for image  10

     activation energy (->) =   2.227674 eV
     activation energy (<-) =   1.704075 eV

     image        energy (eV)        error (eV/A)        frozen

         1    -177388.1453536            0.022315            F
         2    -177387.9123666            0.535419            F
         3    -177387.2988043            0.858226            F
         4    -177386.5716496            0.974516            F
         5    -177386.0740747            0.940319            F
         6    -177385.9176799            0.897442            F
         7    -177386.1573997            0.975734            F
         8    -177386.8085092            0.891174            F
         9    -177387.3693894            0.590695            F
        10    -177387.6217549            0.133902            F

     path length          =  4.769 bohr
     inter-image distance =  0.530 bohr

     ------------------------------ iteration  30 ------------------------------

     tcpu = 138146.6    self-consistency for image   1
     tcpu = 138583.7    self-consistency for image   2
     tcpu = 139028.7    self-consistency for image   3
     tcpu = 139473.8    self-consistency for image   4
     tcpu = 139934.4    self-consistency for image   5
     tcpu = 140405.0    self-consistency for image   6
     tcpu = 140899.6    self-consistency for image   7
     tcpu = 141366.3    self-consistency for image   8
     tcpu = 141840.6    self-consistency for image   9
     tcpu = 142285.1    self-consistency for image  10

     activation energy (->) =   2.216602 eV
     activation energy (<-) =   1.693174 eV

     image        energy (eV)        error (eV/A)        frozen

         1    -177388.1453670            0.020380            F
         2    -177387.9156562            0.529231            F
         3    -177387.3067620            0.838790            F
         4    -177386.5824116            0.967347            F
         5    -177386.0856726            0.939460            F
         6    -177385.9287650            0.862856            F
         7    -177386.1692475            0.938685            F
         8    -177386.8184000            0.863564            F
         9    -177387.3735114            0.578233            F
        10    -177387.6219386            0.132338            F

     path length          =  4.777 bohr
     inter-image distance =  0.531 bohr

     ------------------------------ iteration  31 ------------------------------

     tcpu = 142698.2    self-consistency for image   1
     tcpu = 143126.2    self-consistency for image   2
     tcpu = 143580.4    self-consistency for image   3
     tcpu = 144054.9    self-consistency for image   4
     tcpu = 144539.0    self-consistency for image   5
     tcpu = 145058.2    self-consistency for image   6
     tcpu = 145627.1    self-consistency for image   7
     tcpu = 146311.8    self-consistency for image   8
     tcpu = 146866.8    self-consistency for image   9
     tcpu = 147311.9    self-consistency for image  10

     activation energy (->) =   2.193542 eV
     activation energy (<-) =   1.670432 eV

     image        energy (eV)        error (eV/A)        frozen

         1    -177388.1454218            0.021761            F
         2    -177387.9225743            0.515095            F
         3    -177387.3234679            0.781953            F
         4    -177386.6049105            0.897607            F
         5    -177386.1098339            0.863775            F
         6    -177385.9518802            0.792933            F
         7    -177386.1940467            0.859881            F
         8    -177386.8391905            0.800586            F
         9    -177387.3822225            0.556541            F
        10    -177387.6223126            0.126915            F

     path length          =  4.794 bohr
     inter-image distance =  0.533 bohr

     ------------------------------ iteration  32 ------------------------------

     tcpu = 147698.9    self-consistency for image   1
     tcpu = 148089.7    self-consistency for image   2
     tcpu = 148493.9    self-consistency for image   3
     tcpu = 148938.4    self-consistency for image   4
     tcpu = 149399.5    self-consistency for image   5
     tcpu = 149876.0    self-consistency for image   6
     tcpu = 150363.3    self-consistency for image   7
     tcpu = 150825.6    self-consistency for image   8
     tcpu = 151273.4    self-consistency for image   9
     tcpu = 151715.2    self-consistency for image  10

     activation energy (->) =   2.175107 eV
     activation energy (<-) =   1.652291 eV

     image        energy (eV)        error (eV/A)        frozen

         1    -177388.1454580            0.018529            F
         2    -177387.9281739            0.502712            F
         3    -177387.3369194            0.739007            F
         4    -177386.6229784            0.840280            F
         5    -177386.1291455            0.800406            F
         6    -177385.9703510            0.734604            F
         7    -177386.2139583            0.792474            F
         8    -177386.8559814            0.747471            F
         9    -177387.3892846            0.538238            F
        10    -177387.6226417            0.123968            F

     path length          =  4.810 bohr
     inter-image distance =  0.534 bohr

     ------------------------------ iteration  33 ------------------------------

     tcpu = 152095.2    self-consistency for image   1
     tcpu = 152475.8    self-consistency for image   2
     tcpu = 152876.6    self-consistency for image   3
     tcpu = 153298.9    self-consistency for image   4
     tcpu = 153750.3    self-consistency for image   5
     tcpu = 154190.1    self-consistency for image   6
     tcpu = 154664.6    self-consistency for image   7
     tcpu = 155108.3    self-consistency for image   8
     tcpu = 155530.9    self-consistency for image   9
     tcpu = 155935.7    self-consistency for image  10

     activation energy (->) =   2.162665 eV
     activation energy (<-) =   1.640045 eV

     image        energy (eV)        error (eV/A)        frozen

         1    -177388.1454878            0.018693            F
         2    -177387.9320032            0.494140            F
         3    -177387.3460844            0.706592            F
         4    -177386.6352404            0.798472            F
         5    -177386.1421926            0.755561            F
         6    -177385.9828224            0.694041            F
         7    -177386.2274631            0.746511            F
         8    -177386.8674347            0.708311            F
         9    -177387.3941389            0.526147            F
        10    -177387.6228675            0.124151            F

     path length          =  4.822 bohr
     inter-image distance =  0.536 bohr

     ------------------------------ iteration  34 ------------------------------

     tcpu = 156315.5    self-consistency for image   1
     tcpu = 156684.8    self-consistency for image   2
     tcpu = 157076.4    self-consistency for image   3
     tcpu = 157467.0    self-consistency for image   4
     tcpu = 157877.1    self-consistency for image   5
     tcpu = 158276.3    self-consistency for image   6
     tcpu = 158689.2    self-consistency for image   7
     tcpu = 159125.2    self-consistency for image   8
     tcpu = 159530.5    self-consistency for image   9
     tcpu = 159945.2    self-consistency for image  10

     activation energy (->) =   2.160254 eV
     activation energy (<-) =   1.637665 eV

     image        energy (eV)        error (eV/A)        frozen

         1    -177388.1454981            0.020545            F
         2    -177387.9327636            0.492233            F
         3    -177387.3478594            0.698368            F
         4    -177386.6376338            0.790383            F
         5    -177386.1447223            0.747800            F
         6    -177385.9852444            0.685739            F
         7    -177386.2300854            0.737629            F
         8    -177386.8696861            0.700380            F
         9    -177387.3951026            0.525768            F
        10    -177387.6229096            0.122766            F

     path length          =  4.824 bohr
     inter-image distance =  0.536 bohr

     ------------------------------ iteration  35 ------------------------------

     tcpu = 160349.1    self-consistency for image   1
     tcpu = 160752.2    self-consistency for image   2
     tcpu = 161146.5    self-consistency for image   3
     tcpu = 161540.9    self-consistency for image   4
     tcpu = 161945.9    self-consistency for image   5
     tcpu = 162347.5    self-consistency for image   6
     tcpu = 162756.7    self-consistency for image   7
     tcpu = 163197.2    self-consistency for image   8
     tcpu = 163578.5    self-consistency for image   9
     tcpu = 163959.1    self-consistency for image  10

     activation energy (->) =   2.159194 eV
     activation energy (<-) =   1.636622 eV

     image        energy (eV)        error (eV/A)        frozen

         1    -177388.1455010            0.020928            F
         2    -177387.9331222            0.491491            F
         3    -177387.3487060            0.697210            F
         4    -177386.6387119            0.776666            F
         5    -177386.1458402            0.721501            F
         6    -177385.9863073            0.662327            F
         7    -177386.2312470            0.711816            F
         8    -177386.8707096            0.697031            F
         9    -177387.3955576            0.522882            F
        10    -177387.6229292            0.122493            F

     path length          =  4.825 bohr
     inter-image distance =  0.536 bohr

     ------------------------------ iteration  36 ------------------------------

     tcpu = 164339.4    self-consistency for image   1
     tcpu = 164734.5    self-consistency for image   2
     tcpu = 165117.0    self-consistency for image   3
     tcpu = 165495.5    self-consistency for image   4
     tcpu = 165877.8    self-consistency for image   5
     tcpu = 166261.2    self-consistency for image   6
     tcpu = 166640.0    self-consistency for image   7
     tcpu = 167029.0    self-consistency for image   8
     tcpu = 167406.7    self-consistency for image   9
     tcpu = 167789.1    self-consistency for image  10

     activation energy (->) =   2.157987 eV
     activation energy (<-) =   1.635445 eV

     image        energy (eV)        error (eV/A)        frozen

         1    -177388.1455000            0.020817            F
         2    -177387.9335409            0.490475            F
         3    -177387.3496524            0.693564            F
         4    -177386.6399220            0.767677            F
         5    -177386.1471032            0.716426            F
         6    -177385.9875126            0.659734            F
         7    -177386.2325456            0.707494            F
         8    -177386.8718750            0.692919            F
         9    -177387.3960853            0.522046            F
        10    -177387.6229580            0.122286            F

     path length          =  4.827 bohr
     inter-image distance =  0.536 bohr

     ------------------------------ iteration  37 ------------------------------

     tcpu = 168188.4    self-consistency for image   1
     tcpu = 168614.1    self-consistency for image   2
     tcpu = 169035.0    self-consistency for image   3
     tcpu = 169463.1    self-consistency for image   4
     tcpu = 169893.3    self-consistency for image   5
     tcpu = 170324.6    self-consistency for image   6
     tcpu = 170769.0    self-consistency for image   7
     tcpu = 171215.4    self-consistency for image   8
     tcpu = 171651.5    self-consistency for image   9
     tcpu = 172099.2    self-consistency for image  10

     activation energy (->) =   2.156310 eV
     activation energy (<-) =   1.633803 eV

     image        energy (eV)        error (eV/A)        frozen

         1    -177388.1455025            0.020839            F
         2    -177387.9341396            0.488980            F
         3    -177387.3509819            0.688739            F
         4    -177386.6415985            0.755572            F
         5    -177386.1488388            0.704150            F
         6    -177385.9891924            0.672369            F
         7    -177386.2343613            0.720871            F
         8    -177386.8735087            0.687633            F
         9    -177387.3968373            0.520829            F
        10    -177387.6229950            0.122066            F

     path length          =  4.828 bohr
     inter-image distance =  0.536 bohr

     ------------------------------ iteration  38 ------------------------------

     tcpu = 172534.5    self-consistency for image   1
     tcpu = 172977.2    self-consistency for image   2
     tcpu = 173430.3    self-consistency for image   3
     tcpu = 173885.9    self-consistency for image   4
     tcpu = 174362.8    self-consistency for image   5
     tcpu = 174850.0    self-consistency for image   6
     tcpu = 175339.7    self-consistency for image   7
     tcpu = 175816.0    self-consistency for image   8
     tcpu = 176297.8    self-consistency for image   9
     tcpu = 176751.8    self-consistency for image  10

     activation energy (->) =   2.148051 eV
     activation energy (<-) =   1.625702 eV

     image        energy (eV)        error (eV/A)        frozen

         1    -177388.1455268            0.018589            F
         2    -177387.9371229            0.481858            F
         3    -177387.3576300            0.670448            F
         4    -177386.6499892            0.747892            F
         5    -177386.1575090            0.704638            F
         6    -177385.9974762            0.648117            F
         7    -177386.2433191            0.691646            F
         8    -177386.8816834            0.673285            F
         9    -177387.4005905            0.508806            F
        10    -177387.6231779            0.120265            F

     path length          =  4.837 bohr
     inter-image distance =  0.537 bohr

     ------------------------------ iteration  39 ------------------------------

     tcpu = 177178.1    self-consistency for image   1
     tcpu = 177616.8    self-consistency for image   2
     tcpu = 178086.2    self-consistency for image   3
     tcpu = 178555.6    self-consistency for image   4
     tcpu = 179043.9    self-consistency for image   5
     tcpu = 179551.9    self-consistency for image   6
     tcpu = 180106.1    self-consistency for image   7
     tcpu = 180591.7    self-consistency for image   8
     tcpu = 181075.9    self-consistency for image   9
     tcpu = 181543.8    self-consistency for image  10

     activation energy (->) =   2.130896 eV
     activation energy (<-) =   1.608867 eV

     image        energy (eV)        error (eV/A)        frozen

         1    -177388.1455796            0.018784            F
         2    -177387.9433718            0.466633            F
         3    -177387.3715167            0.618965            F
         4    -177386.6674397            0.688764            F
         5    -177386.1754934            0.643030            F
         6    -177386.0146841            0.590383            F
         7    -177386.2619832            0.637485            F
         8    -177386.8987421            0.646202            F
         9    -177387.4084339            0.487230            F
        10    -177387.6235508            0.113336            F

     path length          =  4.857 bohr
     inter-image distance =  0.540 bohr

     ------------------------------ iteration  40 ------------------------------

     tcpu = 181988.0    self-consistency for image   1
     tcpu = 182476.2    self-consistency for image   2
     tcpu = 182958.1    self-consistency for image   3
     tcpu = 183418.3    self-consistency for image   4
     tcpu = 183900.9    self-consistency for image   5
     tcpu = 184400.0    self-consistency for image   6
     tcpu = 184898.9    self-consistency for image   7
     tcpu = 185387.0    self-consistency for image   8
     tcpu = 185856.4    self-consistency for image   9
     tcpu = 186352.2    self-consistency for image  10

     activation energy (->) =   2.118015 eV
     activation energy (<-) =   1.596263 eV

     image        energy (eV)        error (eV/A)        frozen

         1    -177388.1456159            0.019871            F
         2    -177387.9481190            0.453451            F
         3    -177387.3820205            0.580322            F
         4    -177386.6806040            0.639186            F
         5    -177386.1890151            0.594195            F
         6    -177386.0276010            0.545980            F
         7    -177386.2760569            0.616058            F
         8    -177386.9116443            0.623734            F
         9    -177387.4143894            0.470166            F
        10    -177387.6238644            0.112557            F

     path length          =  4.874 bohr
     inter-image distance =  0.542 bohr

     ------------------------------ iteration  41 ------------------------------

     tcpu = 186831.2    self-consistency for image   1
     tcpu = 187337.1    self-consistency for image   2
     tcpu = 187837.2    self-consistency for image   3
     tcpu = 188329.7    self-consistency for image   4
     tcpu = 188823.4    self-consistency for image   5
     tcpu = 189343.7    self-consistency for image   6
     tcpu = 189859.5    self-consistency for image   7
     tcpu = 190340.1    self-consistency for image   8
     tcpu = 190817.3    self-consistency for image   9
     tcpu = 191268.9    self-consistency for image  10

     activation energy (->) =   2.109880 eV
     activation energy (<-) =   1.588308 eV

     image        energy (eV)        error (eV/A)        frozen

         1    -177388.1456384            0.017179            F
         2    -177387.9511499            0.445134            F
         3    -177387.3887016            0.554828            F
         4    -177386.6889435            0.608308            F
         5    -177386.1975546            0.561047            F
         6    -177386.0357579            0.525635            F
         7    -177386.2849672            0.601889            F
         8    -177386.9198470            0.609466            F
         9    -177387.4181782            0.459109            F
        10    -177387.6240663            0.111781            F

     path length          =  4.885 bohr
     inter-image distance =  0.543 bohr

     ------------------------------ iteration  42 ------------------------------

     tcpu = 191729.8    self-consistency for image   1
     tcpu = 192222.3    self-consistency for image   2
     tcpu = 192697.5    self-consistency for image   3
     tcpu = 193173.8    self-consistency for image   4
     tcpu = 193656.9    self-consistency for image   5
     tcpu = 194134.6    self-consistency for image   6
     tcpu = 194623.7    self-consistency for image   7
     tcpu = 195073.6    self-consistency for image   8
     tcpu = 195528.8    self-consistency for image   9
     tcpu = 195995.0    self-consistency for image  10

     activation energy (->) =   2.108361 eV
     activation energy (<-) =   1.586818 eV

     image        energy (eV)        error (eV/A)        frozen

         1    -177388.1456437            0.019480            F
         2    -177387.9517295            0.443664            F
         3    -177387.3899517            0.549510            F
         4    -177386.6904775            0.580412            F
         5    -177386.1991231            0.523323            F
         6    -177386.0372826            0.524874            F
         7    -177386.2866375            0.597029            F
         8    -177386.9213657            0.607697            F
         9    -177387.4188996            0.457705            F
        10    -177387.6241003            0.111127            F

     path length          =  4.888 bohr
     inter-image distance =  0.543 bohr

     ------------------------------ iteration  43 ------------------------------

     tcpu = 196450.3    self-consistency for image   1
     tcpu = 196914.7    self-consistency for image   2
     tcpu = 197358.2    self-consistency for image   3
     tcpu = 197810.6    self-consistency for image   4
     tcpu = 198265.6    self-consistency for image   5
     tcpu = 198709.1    self-consistency for image   6
     tcpu = 199159.8    self-consistency for image   7
     tcpu = 199597.3    self-consistency for image   8
     tcpu = 200024.4    self-consistency for image   9
     tcpu = 200462.5    self-consistency for image  10

     activation energy (->) =   2.107695 eV
     activation energy (<-) =   1.586169 eV

     image        energy (eV)        error (eV/A)        frozen

         1    -177388.1456457            0.019646            F
         2    -177387.9519965            0.442966            F
         3    -177387.3905268            0.548131            F
         4    -177386.6911880            0.589644            F
         5    -177386.1998485            0.543184            F
         6    -177386.0379505            0.507739            F
         7    -177386.2873670            0.585148            F
         8    -177386.9220699            0.606298            F
         9    -177387.4192323            0.455672            F
        10    -177387.6241198            0.110847            F

     path length          =  4.889 bohr
     inter-image distance =  0.543 bohr

     ------------------------------ iteration  44 ------------------------------

     tcpu = 200896.5    self-consistency for image   1
     tcpu = 201330.0    self-consistency for image   2
     tcpu = 201724.2    self-consistency for image   3
     tcpu = 202108.1    self-consistency for image   4
     tcpu = 202488.0    self-consistency for image   5
     tcpu = 202875.1    self-consistency for image   6
     tcpu = 203260.1    self-consistency for image   7
     tcpu = 203642.9    self-consistency for image   8
     tcpu = 204014.8    self-consistency for image   9
     tcpu = 204393.9    self-consistency for image  10

     activation energy (->) =   2.106864 eV
     activation energy (<-) =   1.585353 eV

     image        energy (eV)        error (eV/A)        frozen

         1    -177388.1456532            0.019286            F
         2    -177387.9523435            0.442036            F
         3    -177387.3912484            0.545033            F
         4    -177386.6920495            0.582649            F
         5    -177386.2007252            0.531909            F
         6    -177386.0387893            0.503158            F
         7    -177386.2882755            0.576457            F
         8    -177386.9229376            0.604449            F
         9    -177387.4196597            0.455013            F
        10    -177387.6241427            0.110652            F

     path length          =  4.890 bohr
     inter-image distance =  0.543 bohr

     ------------------------------ iteration  45 ------------------------------

     tcpu = 204758.7    self-consistency for image   1
     tcpu = 205130.2    self-consistency for image   2
     tcpu = 205516.8    self-consistency for image   3
     tcpu = 205960.9    self-consistency for image   4
     tcpu = 206355.1    self-consistency for image   5
     tcpu = 206738.4    self-consistency for image   6
     tcpu = 207126.3    self-consistency for image   7
     tcpu = 207531.0    self-consistency for image   8
     tcpu = 207916.0    self-consistency for image   9
     tcpu = 208300.7    self-consistency for image  10

     activation energy (->) =   2.105640 eV
     activation energy (<-) =   1.584159 eV

     image        energy (eV)        error (eV/A)        frozen

         1    -177388.1456576            0.019107            F
         2    -177387.9528679            0.440542            F
         3    -177387.3923261            0.540892            F
         4    -177386.6933182            0.572732            F
         5    -177386.2020150            0.519663            F
         6    -177386.0400179            0.493859            F
         7    -177386.2896298            0.591880            F
         8    -177386.9242284            0.603373            F
         9    -177387.4203041            0.453351            F
        10    -177387.6241773            0.110265            F

     path length          =  4.892 bohr
     inter-image distance =  0.544 bohr

     ------------------------------ iteration  46 ------------------------------

     tcpu = 208696.7    self-consistency for image   1
     tcpu = 209088.2    self-consistency for image   2
     tcpu = 209496.0    self-consistency for image   3
     tcpu = 209900.8    self-consistency for image   4
     tcpu = 210336.5    self-consistency for image   5
     tcpu = 210782.0    self-consistency for image   6
     tcpu = 211243.3    self-consistency for image   7
     tcpu = 211672.6    self-consistency for image   8
     tcpu = 212106.4    self-consistency for image   9
     tcpu = 212504.6    self-consistency for image  10

     activation energy (->) =   2.099471 eV
     activation energy (<-) =   1.578157 eV

     image        energy (eV)        error (eV/A)        frozen

         1    -177388.1456711            0.017490            F
         2    -177387.9554810            0.433020            F
         3    -177387.3977097            0.532028            F
         4    -177386.6996710            0.568034            F
         5    -177386.2084691            0.524320            F
         6    -177386.0461998            0.510781            F
         7    -177386.2963134            0.581128            F
         8    -177386.9306777            0.591290            F
         9    -177387.4235133            0.444439            F
        10    -177387.6243571            0.108671            F

     path length          =  4.901 bohr
     inter-image distance =  0.545 bohr

     ------------------------------ iteration  47 ------------------------------

     tcpu = 212880.8    self-consistency for image   1
     tcpu = 213271.0    self-consistency for image   2
     tcpu = 213694.2    self-consistency for image   3
     tcpu = 214135.8    self-consistency for image   4
     tcpu = 214583.8    self-consistency for image   5
     tcpu = 215051.7    self-consistency for image   6
     tcpu = 215552.4    self-consistency for image   7
     tcpu = 216003.2    self-consistency for image   8
     tcpu = 216439.9    self-consistency for image   9
     tcpu = 216866.5    self-consistency for image  10

     activation energy (->) =   2.085991 eV
     activation energy (<-) =   1.565026 eV

     image        energy (eV)        error (eV/A)        frozen

         1    -177388.1457206            0.017373            F
         2    -177387.9612472            0.416492            F
         3    -177387.4095601            0.515809            F
         4    -177386.7136197            0.516509            F
         5    -177386.2226307            0.473925            F
         6    -177386.0597296            0.491226            F
         7    -177386.3110528            0.554164            F
         8    -177386.9448833            0.568891            F
         9    -177387.4305691            0.423497            F
        10    -177387.6247557            0.105990            F

     path length          =  4.924 bohr
     inter-image distance =  0.547 bohr

     ------------------------------ iteration  48 ------------------------------

     tcpu = 217282.3    self-consistency for image   1
     tcpu = 217745.2    self-consistency for image   2
     tcpu = 218215.0    self-consistency for image   3
     tcpu = 218690.0    self-consistency for image   4
     tcpu = 219169.9    self-consistency for image   5
     tcpu = 219623.8    self-consistency for image   6
     tcpu = 220071.8    self-consistency for image   7
     tcpu = 220536.6    self-consistency for image   8
     tcpu = 220983.8    self-consistency for image   9
     tcpu = 221420.0    self-consistency for image  10

     activation energy (->) =   2.076921 eV
     activation energy (<-) =   1.556204 eV

     image        energy (eV)        error (eV/A)        frozen

         1    -177388.1457521            0.014662            F
         2    -177387.9651532            0.403746            F
         3    -177387.4175809            0.504185            F
         4    -177386.7230337            0.480060            F
         5    -177386.2321756            0.438835            F
         6    -177386.0688310            0.475526            F
         7    -177386.3209927            0.534774            F
         8    -177386.9544826            0.551273            F
         9    -177387.4353390            0.408942            F
        10    -177387.6250350            0.100268            F

     path length          =  4.941 bohr
     inter-image distance =  0.549 bohr

     ------------------------------ iteration  49 ------------------------------

     tcpu = 221872.5    self-consistency for image   1
     tcpu = 222346.3    self-consistency for image   2
     tcpu = 222824.6    self-consistency for image   3
     tcpu = 223296.3    self-consistency for image   4
     tcpu = 223776.1    self-consistency for image   5
     tcpu = 224231.7    self-consistency for image   6
     tcpu = 224664.1    self-consistency for image   7
     tcpu = 225127.6    self-consistency for image   8
     tcpu = 225554.6    self-consistency for image   9
     tcpu = 225960.8    self-consistency for image  10

     activation energy (->) =   2.071437 eV
     activation energy (<-) =   1.550885 eV

     image        energy (eV)        error (eV/A)        frozen

         1    -177388.1457669            0.015642            F
         2    -177387.9675268            0.395988            F
         3    -177387.4224295            0.496866            F
         4    -177386.7287298            0.455968            F
         5    -177386.2379486            0.416310            F
         6    -177386.0743297            0.468109            F
         7    -177386.3269915            0.522597            F
         8    -177386.9602997            0.540089            F
         9    -177387.4382165            0.400373            F
        10    -177387.6252143            0.100817            F

     path length          =  4.952 bohr
     inter-image distance =  0.550 bohr

     ------------------------------ iteration  50 ------------------------------

     tcpu = 226348.1    self-consistency for image   1
     tcpu = 226706.6    self-consistency for image   2
     tcpu = 227095.8    self-consistency for image   3
     tcpu = 227487.4    self-consistency for image   4
     tcpu = 227876.3    self-consistency for image   5
     tcpu = 228260.8    self-consistency for image   6
     tcpu = 228641.2    self-consistency for image   7
     tcpu = 229028.4    self-consistency for image   8
     tcpu = 229411.5    self-consistency for image   9
     tcpu = 229792.3    self-consistency for image  10

     activation energy (->) =   2.070429 eV
     activation energy (<-) =   1.549894 eV

     image        energy (eV)        error (eV/A)        frozen

         1    -177388.1457759            0.017784            F
         2    -177387.9679831            0.394600            F
         3    -177387.4233466            0.495130            F
         4    -177386.7297938            0.446589            F
         5    -177386.2390202            0.387158            F
         6    -177386.0753466            0.437889            F
         7    -177386.3281005            0.485926            F
         8    -177386.9613871            0.538648            F
         9    -177387.4387764            0.396878            F
        10    -177387.6252407            0.100771            F

     path length          =  4.954 bohr
     inter-image distance =  0.550 bohr

     ------------------------------ iteration  51 ------------------------------

     tcpu = 230159.1    self-consistency for image   1
     tcpu = 230529.0    self-consistency for image   2
     tcpu = 230916.9    self-consistency for image   3
     tcpu = 231308.9    self-consistency for image   4
     tcpu = 231695.6    self-consistency for image   5
     tcpu = 232075.4    self-consistency for image   6
     tcpu = 232458.0    self-consistency for image   7
     tcpu = 232843.1    self-consistency for image   8
     tcpu = 233225.1    self-consistency for image   9
     tcpu = 233602.0    self-consistency for image  10

     activation energy (->) =   2.069977 eV
     activation energy (<-) =   1.549465 eV

     image        energy (eV)        error (eV/A)        frozen

         1    -177388.1457725            0.018769            F
         2    -177387.9681783            0.394072            F
         3    -177387.4237368            0.494801            F
         4    -177386.7302487            0.447052            F
         5    -177386.2394848            0.402180            F
         6    -177386.0757960            0.455516            F
         7    -177386.3285862            0.507814            F
         8    -177386.9618577            0.538186            F
         9    -177387.4390108            0.396785            F
        10    -177387.6252615            0.101349            F

     path length          =  4.954 bohr
     inter-image distance =  0.550 bohr

     ------------------------------ iteration  52 ------------------------------

     tcpu = 233973.7    self-consistency for image   1
     tcpu = 234340.3    self-consistency for image   2
     tcpu = 234725.3    self-consistency for image   3
     tcpu = 235113.9    self-consistency for image   4
     tcpu = 235495.9    self-consistency for image   5
     tcpu = 235878.3    self-consistency for image   6
     tcpu = 236257.7    self-consistency for image   7
     tcpu = 236643.5    self-consistency for image   8
     tcpu = 237041.9    self-consistency for image   9
     tcpu = 237429.0    self-consistency for image  10

     activation energy (->) =   2.069369 eV
     activation energy (<-) =   1.548856 eV

     image        energy (eV)        error (eV/A)        frozen

         1    -177388.1457892            0.017640            F
         2    -177387.9684722            0.393036            F
         3    -177387.4243058            0.493739            F
         4    -177386.7308981            0.444707            F
         5    -177386.2401429            0.393387            F
         6    -177386.0764197            0.445079            F
         7    -177386.3292554            0.496911            F
         8    -177386.9625303            0.536526            F
         9    -177387.4393623            0.395539            F
        10    -177387.6252758            0.101085            F

     path length          =  4.956 bohr
     inter-image distance =  0.551 bohr

     ------------------------------ iteration  53 ------------------------------

     tcpu = 237834.9    self-consistency for image   1
     tcpu = 238241.5    self-consistency for image   2
     tcpu = 238640.5    self-consistency for image   3
     tcpu = 239034.6    self-consistency for image   4
     tcpu = 239432.8    self-consistency for image   5
     tcpu = 239846.1    self-consistency for image   6
     tcpu = 240234.8    self-consistency for image   7
     tcpu = 240679.9    self-consistency for image   8
     tcpu = 241080.9    self-consistency for image   9
     tcpu = 241477.2    self-consistency for image  10

     activation energy (->) =   2.068395 eV
     activation energy (<-) =   1.547935 eV

     image        energy (eV)        error (eV/A)        frozen

         1    -177388.1457784            0.018699            F
         2    -177387.9689329            0.391580            F
         3    -177387.4251898            0.492144            F
         4    -177386.7318951            0.441006            F
         5    -177386.2411518            0.382108            F
         6    -177386.0773834            0.435453            F
         7    -177386.3302755            0.485434            F
         8    -177386.9635706            0.535294            F
         9    -177387.4399123            0.393770            F
        10    -177387.6253180            0.100580            F

     path length          =  4.958 bohr
     inter-image distance =  0.551 bohr

     ------------------------------ iteration  54 ------------------------------

     tcpu = 241880.7    self-consistency for image   1
     tcpu = 242263.5    self-consistency for image   2
     tcpu = 242653.7    self-consistency for image   3
     tcpu = 243049.5    self-consistency for image   4
     tcpu = 243465.6    self-consistency for image   5
     tcpu = 243895.0    self-consistency for image   6
     tcpu = 244324.3    self-consistency for image   7
     tcpu = 244754.9    self-consistency for image   8
     tcpu = 245169.5    self-consistency for image   9
     tcpu = 245566.9    self-consistency for image  10

     activation energy (->) =   2.063858 eV
     activation energy (<-) =   1.543546 eV

     image        energy (eV)        error (eV/A)        frozen

         1    -177388.1457988            0.016118            F
         2    -177387.9710389            0.383771            F
         3    -177387.4293337            0.485756            F
         4    -177386.7366058            0.430146            F
         5    -177386.2459298            0.389093            F
         6    -177386.0819412            0.455708            F
         7    -177386.3351436            0.506577            F
         8    -177386.9684504            0.526984            F
         9    -177387.4424879            0.386943            F
        10    -177387.6254872            0.099446            F

     path length          =  4.967 bohr
     inter-image distance =  0.552 bohr

     ------------------------------ iteration  55 ------------------------------

     tcpu = 245949.5    self-consistency for image   1
     tcpu = 246331.8    self-consistency for image   2
     tcpu = 246788.8    self-consistency for image   3
     tcpu = 247253.5    self-consistency for image   4
     tcpu = 247734.5    self-consistency for image   5
     tcpu = 248215.8    self-consistency for image   6
     tcpu = 248703.0    self-consistency for image   7
     tcpu = 249203.5    self-consistency for image   8
     tcpu = 249675.7    self-consistency for image   9
     tcpu = 250166.3    self-consistency for image  10

     WARNING :  scf convergence NOT achieved on image  10

     cleaning-up extrapolation files

 
     NEB          :     20h14m CPU   2d21h35m WALL

 
   This run was terminated on:   0:38:45  22Jun2025            

=------------------------------------------------------------------------------=
   JOB DONE.
=------------------------------------------------------------------------------=
