
     Program NEB v.7.3.1 starts on 19Jun2025 at  3: 3:36 
        Git branch: HEAD
        Last git commit: 7fd60c9bc9fe7a7d1fe6f1049f4afba0eab9aeef
        Last git commit date: Thu Feb 29 10:18:05 2024 +0000
        Last git commit subject: Merge branch 'master_qe_7.3.1' into 'master'

     This program is part of the open-source Quantum ESPRESSO suite
     for quantum simulation of materials; please cite
         "P. Giannozzi et al., J. Phys.:Condens. Matter 21 395502 (2009);
         "P. Giannozzi et al., J. Phys.:Condens. Matter 29 465901 (2017);
         "P. Giannozzi et al., J. Chem. Phys. 152 154105 (2020);
          URL http://www.quantum-espresso.org", 
     in publications or presentations arising from this work. More details at
     http://www.quantum-espresso.org/quote

     Parallel version (MPI & OpenMP), running on      40 processor cores
     Number of MPI processes:                 4
     Threads/MPI process:                    10

     MPI processes distributed on     1 nodes
     1491708 MiB available memory on the printing compute node when the environment starts
 

     Parsing file: /input/neb.in
     Reading input from pw_1.in
Warning: card &CELL ignored
Warning: card   CELL_DYNAMICS = 'BFGS' ignored
Warning: card   PRESS = 0.0 ignored
Warning: card   PRESS_CONV_THR = 0.5 ignored
Warning: card / ignored
     Reading input from pw_2.in
Warning: card &CELL ignored
Warning: card   CELL_DYNAMICS = 'BFGS' ignored
Warning: card   PRESS = 0.0 ignored
Warning: card   PRESS_CONV_THR = 0.5 ignored
Warning: card / ignored

     initial path length           =  8.1665 bohr
     initial inter-image distance  =  0.9074 bohr
 
     string_method                 =    neb
     restart_mode                  =    from_scratch
     opt_scheme                    =    broyden
     num_of_images                 =    10
     nstep_path                    =    1000
     CI_scheme                     =    no-CI
     first_last_opt                =    T
     use_freezing                  =    F
     ds                            =    0.0756 a.u.
     k_max                         =    0.0131 a.u.
     k_min                         =    0.0050 a.u.
     suggested k_max               =  107.9285 a.u.
     suggested k_min               =   41.1941 a.u.
     path_thr                      =    0.0010 eV / A

     ------------------------------ iteration   1 ------------------------------

     tcpu =      3.0    self-consistency for image   1
     tcpu =    483.2    self-consistency for image   2
     tcpu =    988.1    self-consistency for image   3
     tcpu =   1430.4    self-consistency for image   4
     tcpu =   1818.5    self-consistency for image   5
     tcpu =   2261.0    self-consistency for image   6
     tcpu =   2663.8    self-consistency for image   7
     tcpu =   3065.8    self-consistency for image   8
     tcpu =   3539.6    self-consistency for image   9
     tcpu =   3952.4    self-consistency for image  10

     activation energy (->) =   6.203230 eV
     activation energy (<-) =   6.186500 eV

     image        energy (eV)        error (eV/A)        frozen

         1    -177388.1614197            0.074666            F
         2    -177387.2552218            1.747183            F
         3    -177385.9162528            2.983201            F
         4    -177383.8617747            7.226016            F
         5    -177382.0149129           11.124697            F
         6    -177381.9581899           10.880346            F
         7    -177383.7740482            7.001321            F
         8    -177385.8388120            2.931713            F
         9    -177387.2132919            1.970618            F
        10    -177388.1446895            0.029729            F

     path length          =  8.166 bohr
     inter-image distance =  0.907 bohr

     ------------------------------ iteration   2 ------------------------------

     tcpu =   4334.8    self-consistency for image   1
     tcpu =   4719.3    self-consistency for image   2
     tcpu =   5109.5    self-consistency for image   3
     tcpu =   5515.3    self-consistency for image   4
     tcpu =   5916.6    self-consistency for image   5
     tcpu =   6344.9    self-consistency for image   6
     tcpu =   6750.9    self-consistency for image   7
     tcpu =   7156.9    self-consistency for image   8
     tcpu =   7558.8    self-consistency for image   9
     tcpu =   7953.9    self-consistency for image  10

     activation energy (->) =   6.188557 eV
     activation energy (<-) =   6.171846 eV

     image        energy (eV)        error (eV/A)        frozen

         1    -177388.1614204            0.074388            F
         2    -177387.2556416            1.745017            F
         3    -177385.9182031            2.980074            F
         4    -177383.8690461            7.207802            F
         5    -177382.0294168           11.096357            F
         6    -177381.9728632           10.852074            F
         7    -177383.7815315            6.983560            F
         8    -177385.8409149            2.928300            F
         9    -177387.2137958            1.968572            F
        10    -177388.1447089            0.029646            F

     path length          =  8.166 bohr
     inter-image distance =  0.907 bohr

     ------------------------------ iteration   3 ------------------------------

     tcpu =   8327.8    self-consistency for image   1
     tcpu =   8729.3    self-consistency for image   2
     tcpu =   9250.0    self-consistency for image   3
     tcpu =   9865.6    self-consistency for image   4
     tcpu =  10491.4    self-consistency for image   5
     tcpu =  11072.7    self-consistency for image   6
     tcpu =  11766.7    self-consistency for image   7
     tcpu =  12345.3    self-consistency for image   8
     tcpu =  12999.5    self-consistency for image   9
     tcpu =  13503.3    self-consistency for image  10

     activation energy (->) =   4.040940 eV
     activation energy (<-) =   4.023900 eV

     image        energy (eV)        error (eV/A)        frozen

         1    -177388.1619328            0.061917            F
         2    -177387.3320381            1.649813            F
         3    -177386.2471765            2.537098            F
         4    -177385.0051892            4.845226            F
         5    -177384.1515513            6.314847            F
         6    -177384.1209932            6.251541            F
         7    -177384.9558535            4.866795            F
         8    -177386.1953313            2.501979            F
         9    -177387.3035326            1.844792            F
        10    -177388.1448928            0.030763            F

     path length          =  8.220 bohr
     inter-image distance =  0.913 bohr

     ------------------------------ iteration   4 ------------------------------

     tcpu =  13909.3    self-consistency for image   1
     tcpu =  14304.3    self-consistency for image   2
     tcpu =  14795.2    self-consistency for image   3
     tcpu =  15337.1    self-consistency for image   4
     tcpu =  16010.4    self-consistency for image   5
     tcpu =  16604.7    self-consistency for image   6
     tcpu =  17257.4    self-consistency for image   7
     tcpu =  17913.3    self-consistency for image   8
     tcpu =  18555.6    self-consistency for image   9
     tcpu =  19042.4    self-consistency for image  10

     activation energy (->) =   2.839162 eV
     activation energy (<-) =   2.821827 eV

     image        energy (eV)        error (eV/A)        frozen

         1    -177388.1624202            0.053470            F
         2    -177387.4014592            1.547335            F
         3    -177386.5118119            2.000808            F
         4    -177385.7606131            3.280028            F
         5    -177385.3394743            3.325819            F
         6    -177385.3232581            3.085628            F
         7    -177385.7431861            3.223030            F
         8    -177386.4795756            1.976831            F
         9    -177387.3847309            1.701549            F
        10    -177388.1450848            0.027260            F

     path length          =  8.375 bohr
     inter-image distance =  0.931 bohr

     ------------------------------ iteration   5 ------------------------------

     tcpu =  19447.7    self-consistency for image   1
     tcpu =  19854.3    self-consistency for image   2
     tcpu =  20352.9    self-consistency for image   3
     tcpu =  20903.3    self-consistency for image   4
     tcpu =  21573.2    self-consistency for image   5
     tcpu =  22156.0    self-consistency for image   6
     tcpu =  22805.9    self-consistency for image   7
     tcpu =  23497.2    self-consistency for image   8
     tcpu =  24041.2    self-consistency for image   9
     tcpu =  24526.9    self-consistency for image  10

     activation energy (->) =   2.314849 eV
     activation energy (<-) =   2.297222 eV

     image        energy (eV)        error (eV/A)        frozen

         1    -177388.1628926            0.049860            F
         2    -177387.4638238            1.432415            F
         3    -177386.7182236            1.486534            F
         4    -177386.2137960            2.001646            F
         5    -177385.8616240            1.089789            F
         6    -177385.8480441            0.820316            F
         7    -177386.2218167            1.878686            F
         8    -177386.6998454            1.472919            F
         9    -177387.4571284            1.546865            F
        10    -177388.1452662            0.024558            F

     path length          =  8.624 bohr
     inter-image distance =  0.958 bohr

     ------------------------------ iteration   6 ------------------------------

     tcpu =  24921.5    self-consistency for image   1
     tcpu =  25321.0    self-consistency for image   2
     tcpu =  25813.0    self-consistency for image   3
     tcpu =  26455.6    self-consistency for image   4
     tcpu =  27114.2    self-consistency for image   5
     tcpu =  27709.4    self-consistency for image   6
     tcpu =  28284.5    self-consistency for image   7
     tcpu =  28919.0    self-consistency for image   8
     tcpu =  29472.3    self-consistency for image   9
     tcpu =  29952.1    self-consistency for image  10

     activation energy (->) =   2.285293 eV
     activation energy (<-) =   2.267413 eV

     image        energy (eV)        error (eV/A)        frozen

         1    -177388.1633143            0.041571            F
         2    -177387.5190199            1.304429            F
         3    -177386.8722094            1.180731            F
         4    -177386.4256512            1.095511            F
         5    -177385.8949208            1.167397            F
         6    -177385.8780216            0.996460            F
         7    -177386.4527822            1.229244            F
         8    -177386.8627869            1.301393            F
         9    -177387.5207683            1.392211            F
        10    -177388.1454344            0.021579            F

     path length          =  8.959 bohr
     inter-image distance =  0.995 bohr

     ------------------------------ iteration   7 ------------------------------

     tcpu =  30342.2    self-consistency for image   1
     tcpu =  30735.0    self-consistency for image   2
     tcpu =  31133.9    self-consistency for image   3
     tcpu =  31518.1    self-consistency for image   4
     tcpu =  31946.6    self-consistency for image   5
     tcpu =  32401.2    self-consistency for image   6
     tcpu =  32900.0    self-consistency for image   7
     tcpu =  33386.2    self-consistency for image   8
     tcpu =  33883.3    self-consistency for image   9
     tcpu =  34349.6    self-consistency for image  10

     activation energy (->) =   2.285172 eV
     activation energy (<-) =   2.267296 eV

     image        energy (eV)        error (eV/A)        frozen

         1    -177388.1633280            0.040944            F
         2    -177387.5193787            1.303440            F
         3    -177386.8728865            1.179283            F
         4    -177386.4262620            1.088589            F
         5    -177385.8950657            1.179284            F
         6    -177385.8781564            1.009745            F
         7    -177386.4534060            1.226106            F
         8    -177386.8634860            1.299859            F
         9    -177387.5211777            1.390488            F
        10    -177388.1454524            0.022218            F

     path length          =  8.960 bohr
     inter-image distance =  0.996 bohr

     ------------------------------ iteration   8 ------------------------------

     tcpu =  34707.8    self-consistency for image   1
     tcpu =  35078.3    self-consistency for image   2
     tcpu =  35511.4    self-consistency for image   3
     tcpu =  35914.3    self-consistency for image   4
     tcpu =  36349.6    self-consistency for image   5
     tcpu =  36823.5    self-consistency for image   6
     tcpu =  37311.9    self-consistency for image   7
     tcpu =  37828.7    self-consistency for image   8
     tcpu =  38346.5    self-consistency for image   9
     tcpu =  38870.8    self-consistency for image  10

     activation energy (->) =   2.284307 eV
     activation energy (<-) =   2.266433 eV

     image        energy (eV)        error (eV/A)        frozen

         1    -177388.1633279            0.041610            F
         2    -177387.5202950            1.299557            F
         3    -177386.8744598            1.176517            F
         4    -177386.4276996            1.092073            F
         5    -177385.8959552            1.171493            F
         6    -177385.8790210            1.003884            F
         7    -177386.4548308            1.224352            F
         8    -177386.8650970            1.296148            F
         9    -177387.5221816            1.385664            F
        10    -177388.1454542            0.021445            F

     path length          =  8.960 bohr
     inter-image distance =  0.996 bohr

     ------------------------------ iteration   9 ------------------------------

     tcpu =  39286.2    self-consistency for image   1
     tcpu =  39689.0    self-consistency for image   2
     tcpu =  40140.7    self-consistency for image   3
     tcpu =  40610.6    self-consistency for image   4
     tcpu =  41043.8    self-consistency for image   5
     tcpu =  41476.6    self-consistency for image   6
     tcpu =  41901.7    self-consistency for image   7
     tcpu =  42348.4    self-consistency for image   8
     tcpu =  42803.2    self-consistency for image   9
     tcpu =  43268.8    self-consistency for image  10

     activation energy (->) =   2.280797 eV
     activation energy (<-) =   2.262909 eV

     image        energy (eV)        error (eV/A)        frozen

         1    -177388.1633441            0.040589            F
         2    -177387.5235013            1.284727            F
         3    -177386.8799543            1.176896            F
         4    -177386.4327242            1.084557            F
         5    -177385.8995611            1.163638            F
         6    -177385.8825472            0.992000            F
         7    -177386.4598037            1.223644            F
         8    -177386.8707196            1.297331            F
         9    -177387.5257072            1.370797            F
        10    -177388.1454559            0.020496            F

     path length          =  8.961 bohr
     inter-image distance =  0.996 bohr

     ------------------------------ iteration  10 ------------------------------

     tcpu =  43747.7    self-consistency for image   1
     tcpu =  44212.2    self-consistency for image   2
     tcpu =  44689.3    self-consistency for image   3
     tcpu =  45184.0    self-consistency for image   4
     tcpu =  45678.2    self-consistency for image   5
     tcpu =  46172.5    self-consistency for image   6
     tcpu =  46629.7    self-consistency for image   7
     tcpu =  47124.8    self-consistency for image   8
     tcpu =  47616.2    self-consistency for image   9
     tcpu =  48116.7    self-consistency for image  10

     activation energy (->) =   2.260492 eV
     activation energy (<-) =   2.242566 eV

     image        energy (eV)        error (eV/A)        frozen

         1    -177388.1634247            0.038455            F
         2    -177387.5415303            1.260028            F
         3    -177386.9105914            1.164150            F
         4    -177386.4609129            1.074780            F
         5    -177385.9203451            1.141300            F
         6    -177385.9029323            0.985196            F
         7    -177386.4875815            1.204462            F
         8    -177386.9019569            1.270653            F
         9    -177387.5454977            1.341536            F
        10    -177388.1454986            0.020849            F

     path length          =  8.967 bohr
     inter-image distance =  0.996 bohr

     ------------------------------ iteration  11 ------------------------------

     tcpu =  48562.1    self-consistency for image   1
     tcpu =  49023.7    self-consistency for image   2
     tcpu =  49592.9    self-consistency for image   3
     tcpu =  50235.0    self-consistency for image   4
     tcpu =  50896.7    self-consistency for image   5
     tcpu =  51496.3    self-consistency for image   6
     tcpu =  52229.3    self-consistency for image   7
     tcpu =  52782.4    self-consistency for image   8
     tcpu =  53354.9    self-consistency for image   9
     tcpu =  53917.7    self-consistency for image  10

     activation energy (->) =   2.073692 eV
     activation energy (<-) =   2.055298 eV

     image        energy (eV)        error (eV/A)        frozen

         1    -177388.1642292            0.025926            F
         2    -177387.6913686            0.835203            F
         3    -177387.0530017            0.961992            F
         4    -177386.6994700            0.868236            F
         5    -177386.1080507            0.901766            F
         6    -177386.0905369            0.861344            F
         7    -177386.7243409            0.972029            F
         8    -177387.0541124            1.053663            F
         9    -177387.7060735            0.797267            F
        10    -177388.1458350            0.018038            F

     path length          =  9.129 bohr
     inter-image distance =  1.014 bohr

     ------------------------------ iteration  12 ------------------------------

     tcpu =  54378.7    self-consistency for image   1
     tcpu =  54825.1    self-consistency for image   2
     tcpu =  55356.9    self-consistency for image   3
     tcpu =  55865.1    self-consistency for image   4
     tcpu =  56400.9    self-consistency for image   5
     tcpu =  56958.2    self-consistency for image   6
     tcpu =  57535.7    self-consistency for image   7
     tcpu =  58114.3    self-consistency for image   8
     tcpu =  58692.0    self-consistency for image   9
     tcpu =  59298.8    self-consistency for image  10

     activation energy (->) =   2.024889 eV
     activation energy (<-) =   2.006372 eV

     image        energy (eV)        error (eV/A)        frozen

         1    -177388.1644612            0.025131            F
         2    -177387.7229870            0.660456            F
         3    -177387.1060694            0.920107            F
         4    -177386.7537097            0.800792            F
         5    -177386.1555740            0.825093            F
         6    -177386.1395725            0.823243            F
         7    -177386.7780882            0.875718            F
         8    -177387.1085980            0.976796            F
         9    -177387.7373234            0.575317            F
        10    -177388.1459447            0.023112            F

     path length          =  9.218 bohr
     inter-image distance =  1.024 bohr

     ------------------------------ iteration  13 ------------------------------

     tcpu =  59771.3    self-consistency for image   1
     tcpu =  60201.4    self-consistency for image   2
     tcpu =  60674.3    self-consistency for image   3
     tcpu =  61181.1    self-consistency for image   4
     tcpu =  61676.0    self-consistency for image   5
     tcpu =  62188.7    self-consistency for image   6
     tcpu =  62689.7    self-consistency for image   7
     tcpu =  63181.1    self-consistency for image   8
     tcpu =  63674.1    self-consistency for image   9
     tcpu =  64165.1    self-consistency for image  10

     activation energy (->) =   2.014209 eV
     activation energy (<-) =   1.995676 eV

     image        energy (eV)        error (eV/A)        frozen

         1    -177388.1645100            0.026448            F
         2    -177387.7291387            0.617390            F
         3    -177387.1167230            0.904311            F
         4    -177386.7649296            0.784151            F
         5    -177386.1658573            0.819758            F
         6    -177386.1503006            0.813715            F
         7    -177386.7891310            0.852326            F
         8    -177387.1194952            0.956401            F
         9    -177387.7431262            0.523967            F
        10    -177388.1459770            0.023972            F

     path length          =  9.242 bohr
     inter-image distance =  1.027 bohr

     ------------------------------ iteration  14 ------------------------------

     tcpu =  64607.2    self-consistency for image   1
     tcpu =  65070.0    self-consistency for image   2
     tcpu =  65523.2    self-consistency for image   3
     tcpu =  65968.8    self-consistency for image   4
     tcpu =  66443.2    self-consistency for image   5
     tcpu =  66934.0    self-consistency for image   6
     tcpu =  67431.6    self-consistency for image   7
     tcpu =  67960.2    self-consistency for image   8
     tcpu =  68498.4    self-consistency for image   9
     tcpu =  69054.7    self-consistency for image  10

     activation energy (->) =   2.012349 eV
     activation energy (<-) =   1.993809 eV

     image        energy (eV)        error (eV/A)        frozen

         1    -177388.1645258            0.027203            F
         2    -177387.7301315            0.601251            F
         3    -177387.1184843            0.893427            F
         4    -177386.7668824            0.774217            F
         5    -177386.1676523            0.825917            F
         6    -177386.1521764            0.798420            F
         7    -177386.7910564            0.848120            F
         8    -177387.1212972            0.952834            F
         9    -177387.7440398            0.513616            F
        10    -177388.1459853            0.023611            F

     path length          =  9.245 bohr
     inter-image distance =  1.027 bohr

     ------------------------------ iteration  15 ------------------------------

     tcpu =  69577.9    self-consistency for image   1
     tcpu =  69999.7    self-consistency for image   2
     tcpu =  70419.0    self-consistency for image   3
     tcpu =  70852.9    self-consistency for image   4
     tcpu =  71279.1    self-consistency for image   5
     tcpu =  71731.1    self-consistency for image   6
     tcpu =  72213.1    self-consistency for image   7
     tcpu =  72702.2    self-consistency for image   8
     tcpu =  73220.5    self-consistency for image   9
     tcpu =  73727.9    self-consistency for image  10

     activation energy (->) =   2.011991 eV
     activation energy (<-) =   1.993482 eV

     image        energy (eV)        error (eV/A)        frozen

         1    -177388.1644869            0.026001            F
         2    -177387.7302422            0.606891            F
         3    -177387.1187173            0.898068            F
         4    -177386.7672221            0.780101            F
         5    -177386.1679651            0.816491            F
         6    -177386.1524964            0.806269            F
         7    -177386.7913733            0.844127            F
         8    -177387.1215227            0.952165            F
         9    -177387.7441363            0.513778            F
        10    -177388.1459786            0.023831            F

     path length          =  9.246 bohr
     inter-image distance =  1.027 bohr

     ------------------------------ iteration  16 ------------------------------

     tcpu =  74195.6    self-consistency for image   1
     tcpu =  74596.3    self-consistency for image   2
     tcpu =  75023.3    self-consistency for image   3
     tcpu =  75476.9    self-consistency for image   4
     tcpu =  75931.4    self-consistency for image   5
     tcpu =  76364.1    self-consistency for image   6
     tcpu =  76813.9    self-consistency for image   7
     tcpu =  77284.0    self-consistency for image   8
     tcpu =  77764.9    self-consistency for image   9
     tcpu =  78282.5    self-consistency for image  10

     activation energy (->) =   2.010536 eV
     activation energy (<-) =   1.991972 eV

     image        energy (eV)        error (eV/A)        frozen

         1    -177388.1645508            0.025746            F
         2    -177387.7307791            0.602077            F
         3    -177387.1198284            0.895279            F
         4    -177386.7688697            0.774665            F
         5    -177386.1694598            0.779777            F
         6    -177386.1540149            0.767284            F
         7    -177386.7929778            0.840441            F
         8    -177387.1226042            0.946826            F
         9    -177387.7445948            0.510107            F
        10    -177388.1459869            0.022809            F

     path length          =  9.247 bohr
     inter-image distance =  1.027 bohr

     ------------------------------ iteration  17 ------------------------------

     tcpu =  78776.8    self-consistency for image   1
     tcpu =  79309.1    self-consistency for image   2
     tcpu =  79900.7    self-consistency for image   3
     tcpu =  80443.1    self-consistency for image   4
     tcpu =  80945.2    self-consistency for image   5
     tcpu =  81427.6    self-consistency for image   6
     tcpu =  81897.7    self-consistency for image   7
     tcpu =  82351.7    self-consistency for image   8
     tcpu =  82800.6    self-consistency for image   9
     tcpu =  83251.3    self-consistency for image  10

     activation energy (->) =   2.001937 eV
     activation energy (<-) =   1.983393 eV

     image        energy (eV)        error (eV/A)        frozen

         1    -177388.1645456            0.019351            F
         2    -177387.7336983            0.590188            F
         3    -177387.1260411            0.892724            F
         4    -177386.7782237            0.767760            F
         5    -177386.1779189            0.792522            F
         6    -177386.1626091            0.781422            F
         7    -177386.8020474            0.833002            F
         8    -177387.1286447            0.943097            F
         9    -177387.7470859            0.497847            F
        10    -177388.1460019            0.020619            F

     path length          =  9.251 bohr
     inter-image distance =  1.028 bohr

     ------------------------------ iteration  18 ------------------------------

     tcpu =  83707.6    self-consistency for image   1
     tcpu =  84161.1    self-consistency for image   2
     tcpu =  84677.7    self-consistency for image   3
     tcpu =  85237.5    self-consistency for image   4
     tcpu =  85943.1    self-consistency for image   5
     tcpu =  86529.8    self-consistency for image   6
     tcpu =  87319.2    self-consistency for image   7
     tcpu =  87909.4    self-consistency for image   8
     tcpu =  88459.7    self-consistency for image   9
     tcpu =  88980.2    self-consistency for image  10

     activation energy (->) =   1.918409 eV
     activation energy (<-) =   1.899911 eV

     image        energy (eV)        error (eV/A)        frozen

         1    -177388.1646491            0.045256            F
         2    -177387.7607784            0.403520            F
         3    -177387.1898326            0.780693            F
         4    -177386.8753529            0.638800            F
         5    -177386.2602732            0.530157            F
         6    -177386.2462403            0.506880            F
         7    -177386.8955226            0.684535            F
         8    -177387.1900126            0.796453            F
         9    -177387.7699345            0.323987            F
        10    -177388.1461514            0.013004            F

     path length          =  9.319 bohr
     inter-image distance =  1.035 bohr

     ------------------------------ iteration  19 ------------------------------

     tcpu =  89426.0    self-consistency for image   1
     tcpu =  89927.7    self-consistency for image   2
     tcpu =  90510.2    self-consistency for image   3
     tcpu =  91235.6    self-consistency for image   4
     tcpu =  91931.0    self-consistency for image   5
     tcpu =  92698.9    self-consistency for image   6
     tcpu =  93458.4    self-consistency for image   7
     tcpu =  94218.2    self-consistency for image   8
     tcpu =  94966.1    self-consistency for image   9
     tcpu =  95489.1    self-consistency for image  10

     activation energy (->) =   1.804857 eV
     activation energy (<-) =   1.786812 eV

     image        energy (eV)        error (eV/A)        frozen

         1    -177388.1644793            0.246202            F
         2    -177387.7851262            0.189154            F
         3    -177387.3032622            0.435990            F
         4    -177387.0585975            0.521349            F
         5    -177386.3725792            0.244469            F
         6    -177386.3596219            0.247192            F
         7    -177387.0684913            0.464758            F
         8    -177387.2924053            0.379096            F
         9    -177387.7874651            0.229830            F
        10    -177388.1464334            0.081797            F

     path length          =  9.592 bohr
     inter-image distance =  1.066 bohr

     ------------------------------ iteration  20 ------------------------------

     tcpu =  95984.2    self-consistency for image   1
     tcpu =  96412.2    self-consistency for image   2
     tcpu =  96882.9    self-consistency for image   3
     tcpu =  97362.2    self-consistency for image   4
     tcpu =  97867.1    self-consistency for image   5
     tcpu =  98366.7    self-consistency for image   6
     tcpu =  98874.6    self-consistency for image   7
     tcpu =  99380.3    self-consistency for image   8
     tcpu =  99866.1    self-consistency for image   9
     tcpu = 100336.2    self-consistency for image  10

     activation energy (->) =   1.801221 eV
     activation energy (<-) =   1.783244 eV

     image        energy (eV)        error (eV/A)        frozen

         1    -177388.1644305            0.264041            F
         2    -177387.7843776            0.210750            F
         3    -177387.3097123            0.401786            F
         4    -177387.0702664            0.510094            F
         5    -177386.3762156            0.287858            F
         6    -177386.3632092            0.258083            F
         7    -177387.0791904            0.455914            F
         8    -177387.2977341            0.340978            F
         9    -177387.7863642            0.264025            F
        10    -177388.1464531            0.086240            F

     path length          =  9.621 bohr
     inter-image distance =  1.069 bohr

     ------------------------------ iteration  21 ------------------------------

     tcpu = 100771.6    self-consistency for image   1
     tcpu = 101228.7    self-consistency for image   2
     tcpu = 101703.1    self-consistency for image   3
     tcpu = 102171.5    self-consistency for image   4
     tcpu = 102679.7    self-consistency for image   5
     tcpu = 103162.7    self-consistency for image   6
     tcpu = 103647.2    self-consistency for image   7
     tcpu = 104094.0    self-consistency for image   8
     tcpu = 104546.7    self-consistency for image   9
     tcpu = 104999.9    self-consistency for image  10

     activation energy (->) =   1.800761 eV
     activation energy (<-) =   1.782745 eV

     image        energy (eV)        error (eV/A)        frozen

         1    -177388.1644668            0.264011            F
         2    -177387.7842488            0.217030            F
         3    -177387.3106906            0.396919            F
         4    -177387.0720512            0.508101            F
         5    -177386.3767321            0.301169            F
         6    -177386.3637059            0.269618            F
         7    -177387.0808136            0.454448            F
         8    -177387.2985225            0.325642            F
         9    -177387.7861901            0.277472            F
        10    -177388.1464511            0.087221            F

     path length          =  9.626 bohr
     inter-image distance =  1.070 bohr

     ------------------------------ iteration  22 ------------------------------

     tcpu = 105440.2    self-consistency for image   1
     tcpu = 105919.1    self-consistency for image   2
     tcpu = 106432.7    self-consistency for image   3
     tcpu = 106951.7    self-consistency for image   4
     tcpu = 107496.9    self-consistency for image   5
     tcpu = 108032.0    self-consistency for image   6
     tcpu = 108541.9    self-consistency for image   7
     tcpu = 109032.4    self-consistency for image   8
     tcpu = 109486.5    self-consistency for image   9
     tcpu = 109929.7    self-consistency for image  10

     activation energy (->) =   1.800658 eV
     activation energy (<-) =   1.782666 eV

     image        energy (eV)        error (eV/A)        frozen

         1    -177388.1644464            0.262004            F
         2    -177387.7842546            0.214306            F
         3    -177387.3108226            0.395972            F
         4    -177387.0722557            0.508268            F
         5    -177386.3768118            0.298778            F
         6    -177386.3637882            0.268451            F
         7    -177387.0810001            0.453944            F
         8    -177387.2986471            0.333867            F
         9    -177387.7861986            0.272156            F
        10    -177388.1464542            0.087185            F

     path length          =  9.626 bohr
     inter-image distance =  1.070 bohr

     ------------------------------ iteration  23 ------------------------------

     tcpu = 110383.4    self-consistency for image   1
     tcpu = 110857.1    self-consistency for image   2
     tcpu = 111359.0    self-consistency for image   3
     tcpu = 111876.0    self-consistency for image   4
     tcpu = 112411.3    self-consistency for image   5
     tcpu = 112916.2    self-consistency for image   6
     tcpu = 113431.0    self-consistency for image   7
     tcpu = 114002.1    self-consistency for image   8
     tcpu = 114498.2    self-consistency for image   9
     tcpu = 114931.5    self-consistency for image  10

     activation energy (->) =   1.800636 eV
     activation energy (<-) =   1.782589 eV

     image        energy (eV)        error (eV/A)        frozen

         1    -177388.1645011            0.258061            F
         2    -177387.7842855            0.212594            F
         3    -177387.3109256            0.393867            F
         4    -177387.0724074            0.508034            F
         5    -177386.3768889            0.296850            F
         6    -177386.3638648            0.266001            F
         7    -177387.0811330            0.453951            F
         8    -177387.2987359            0.333801            F
         9    -177387.7862332            0.269717            F
        10    -177388.1464540            0.086459            F

     path length          =  9.626 bohr
     inter-image distance =  1.070 bohr

     ------------------------------ iteration  24 ------------------------------

     tcpu = 115378.5    self-consistency for image   1
     tcpu = 115858.5    self-consistency for image   2
     tcpu = 116344.8    self-consistency for image   3
     tcpu = 116849.2    self-consistency for image   4
     tcpu = 117362.1    self-consistency for image   5
     tcpu = 117866.8    self-consistency for image   6
     tcpu = 118344.7    self-consistency for image   7
     tcpu = 118814.4    self-consistency for image   8
     tcpu = 119269.7    self-consistency for image   9
     tcpu = 119711.4    self-consistency for image  10

     activation energy (->) =   1.798982 eV
     activation energy (<-) =   1.780656 eV

     image        energy (eV)        error (eV/A)        frozen

         1    -177388.1648032            0.170373            F
         2    -177387.7850225            0.201577            F
         3    -177387.3134076            0.392631            F
         4    -177387.0760672            0.505386            F
         5    -177386.3788476            0.287511            F
         6    -177386.3658211            0.259918            F
         7    -177387.0843305            0.451918            F
         8    -177387.3008653            0.330602            F
         9    -177387.7870656            0.252845            F
        10    -177388.1464774            0.072540            F

     path length          =  9.631 bohr
     inter-image distance =  1.070 bohr

     ------------------------------ iteration  25 ------------------------------

     tcpu = 120134.7    self-consistency for image   1
     tcpu = 120617.8    self-consistency for image   2
     tcpu = 121109.5    self-consistency for image   3
     tcpu = 121672.3    self-consistency for image   4
     tcpu = 122232.1    self-consistency for image   5
     tcpu = 122744.4    self-consistency for image   6
     tcpu = 123283.7    self-consistency for image   7
     tcpu = 123828.9    self-consistency for image   8
     tcpu = 124528.1    self-consistency for image   9
     tcpu = 125023.8    self-consistency for image  10

     activation energy (->) =   1.776552 eV
     activation energy (<-) =   1.758823 eV

     image        energy (eV)        error (eV/A)        frozen

         1    -177388.1638923            0.329539            F
         2    -177387.7925499            0.128320            F
         3    -177387.3411818            0.323418            F
         4    -177387.1175428            0.463803            F
         5    -177386.4002021            0.203118            F
         6    -177386.3873401            0.207662            F
         7    -177387.1204701            0.410932            F
         8    -177387.3247535            0.267172            F
         9    -177387.7950689            0.135731            F
        10    -177388.1461631            0.154118            F

     path length          =  9.698 bohr
     inter-image distance =  1.078 bohr

     ------------------------------ iteration  26 ------------------------------

     tcpu = 125492.9    self-consistency for image   1
     tcpu = 126063.5    self-consistency for image   2
     tcpu = 126630.2    self-consistency for image   3
     tcpu = 127429.7    self-consistency for image   4
     tcpu = 128238.9    self-consistency for image   5
     tcpu = 128803.9    self-consistency for image   6
     tcpu = 129545.1    self-consistency for image   7
     tcpu = 130190.5    self-consistency for image   8
     tcpu = 131000.0    self-consistency for image   9
     tcpu = 131541.5    self-consistency for image  10

     activation energy (->) =   1.701786 eV
     activation energy (<-) =   1.688732 eV

     image        energy (eV)        error (eV/A)        frozen

         1    -177388.1387505            0.854249            F
         2    -177387.7977954            0.445415            F
         3    -177387.4081327            0.206595            F
         4    -177387.2294239            0.386992            F
         5    -177386.4473272            0.203036            F
         6    -177386.4369647            0.133518            F
         7    -177387.2174306            0.372304            F
         8    -177387.3829886            0.262941            F
         9    -177387.7942778            0.610443            F
        10    -177388.1256971            2.514152            F

     path length          = 10.083 bohr
     inter-image distance =  1.120 bohr

     ------------------------------ iteration  27 ------------------------------

     tcpu = 132041.9    self-consistency for image   1
     tcpu = 132535.5    self-consistency for image   2
     tcpu = 133045.7    self-consistency for image   3
     tcpu = 133580.5    self-consistency for image   4
     tcpu = 134110.4    self-consistency for image   5
     tcpu = 134571.2    self-consistency for image   6
     tcpu = 135074.3    self-consistency for image   7
     tcpu = 135582.9    self-consistency for image   8
     tcpu = 136096.8    self-consistency for image   9
     tcpu = 136590.0    self-consistency for image  10

     activation energy (->) =   1.695140 eV
     activation energy (<-) =   1.681490 eV

     image        energy (eV)        error (eV/A)        frozen

         1    -177388.1348683            0.906322            F
         2    -177387.7963355            0.491483            F
         3    -177387.4118978            0.206786            F
         4    -177387.2377093            0.438265            F
         5    -177386.4496427            0.241544            F
         6    -177386.4397278            0.161312            F
         7    -177387.2247107            0.419214            F
         8    -177387.3864684            0.264921            F
         9    -177387.7915323            0.671816            F
        10    -177388.1212181            2.794535            F

     path length          = 10.138 bohr
     inter-image distance =  1.126 bohr

     ------------------------------ iteration  28 ------------------------------

     tcpu = 137046.3    self-consistency for image   1
     tcpu = 137487.2    self-consistency for image   2
     tcpu = 137925.9    self-consistency for image   3
     tcpu = 138364.6    self-consistency for image   4
     tcpu = 138798.4    self-consistency for image   5
     tcpu = 139223.6    self-consistency for image   6
     tcpu = 139674.8    self-consistency for image   7
     tcpu = 140139.4    self-consistency for image   8
     tcpu = 140596.9    self-consistency for image   9
     tcpu = 141093.9    self-consistency for image  10

     activation energy (->) =   1.695084 eV
     activation energy (<-) =   1.682309 eV

     image        energy (eV)        error (eV/A)        frozen

         1    -177388.1348806            0.905575            F
         2    -177387.7963381            0.491812            F
         3    -177387.4119765            0.202077            F
         4    -177387.2378706            0.441465            F
         5    -177386.4497010            0.244006            F
         6    -177386.4397970            0.162543            F
         7    -177387.2248631            0.421755            F
         8    -177387.3865437            0.260572            F
         9    -177387.7915254            0.671881            F
        10    -177388.1221059            2.743597            F

     path length          = 10.139 bohr
     inter-image distance =  1.127 bohr

     ------------------------------ iteration  29 ------------------------------

     tcpu = 141569.6    self-consistency for image   1
     tcpu = 142030.5    self-consistency for image   2
     tcpu = 142484.9    self-consistency for image   3
     tcpu = 142899.3    self-consistency for image   4
     tcpu = 143321.7    self-consistency for image   5
     tcpu = 143771.1    self-consistency for image   6
     tcpu = 144256.2    self-consistency for image   7
     tcpu = 144739.0    self-consistency for image   8
     tcpu = 145214.6    self-consistency for image   9
     tcpu = 145746.5    self-consistency for image  10

     activation energy (->) =   1.695143 eV
     activation energy (<-) =   1.683448 eV

     image        energy (eV)        error (eV/A)        frozen

         1    -177388.1349749            0.901166            F
         2    -177387.7963724            0.490378            F
         3    -177387.4120046            0.205628            F
         4    -177387.2379269            0.436117            F
         5    -177386.4497385            0.240873            F
         6    -177386.4398317            0.159465            F
         7    -177387.2249161            0.416823            F
         8    -177387.3865699            0.264130            F
         9    -177387.7915913            0.670647            F
        10    -177388.1232801            2.672600            F

     path length          = 10.139 bohr
     inter-image distance =  1.127 bohr

     ------------------------------ iteration  30 ------------------------------

     tcpu = 146242.4    self-consistency for image   1
     tcpu = 146664.7    self-consistency for image   2
     tcpu = 147078.7    self-consistency for image   3
     tcpu = 147489.5    self-consistency for image   4
     tcpu = 147890.2    self-consistency for image   5
     tcpu = 148290.3    self-consistency for image   6
     tcpu = 148694.6    self-consistency for image   7
     tcpu = 149116.6    self-consistency for image   8
     tcpu = 149568.4    self-consistency for image   9
     tcpu = 150057.9    self-consistency for image  10

     activation energy (->) =   1.696024 eV
     activation energy (<-) =   1.696002 eV

     image        energy (eV)        error (eV/A)        frozen

         1    -177388.1363161            0.872312            F
         2    -177387.7968757            0.480547            F
         3    -177387.4124020            0.203510            F
         4    -177387.2387387            0.426781            F
         5    -177386.4502565            0.232173            F
         6    -177386.4402923            0.154483            F
         7    -177387.2257046            0.407255            F
         8    -177387.3869477            0.261124            F
         9    -177387.7924460            0.655501            F
        10    -177388.1362941            1.588087            F

     path length          = 10.143 bohr
     inter-image distance =  1.127 bohr

     ------------------------------ iteration  31 ------------------------------

     tcpu = 150535.2    self-consistency for image   1
     tcpu = 150997.0    self-consistency for image   2
     tcpu = 151447.7    self-consistency for image   3
     tcpu = 151885.4    self-consistency for image   4
     tcpu = 152288.3    self-consistency for image   5
     tcpu = 152690.9    self-consistency for image   6
     tcpu = 153074.9    self-consistency for image   7
     tcpu = 153476.9    self-consistency for image   8
     tcpu = 153931.2    self-consistency for image   9
     tcpu = 154366.4    self-consistency for image  10

     activation energy (->) =   1.697990 eV
     activation energy (<-) =   1.704958 eV

     image        energy (eV)        error (eV/A)        frozen

         1    -177388.1393379            0.824179            F
         2    -177387.7980517            0.462606            F
         3    -177387.4133351            0.203825            F
         4    -177387.2406736            0.412916            F
         5    -177386.4514467            0.222739            F
         6    -177386.4413482            0.142327            F
         7    -177387.2276024            0.393385            F
         8    -177387.3878364            0.263877            F
         9    -177387.7944506            0.629463            F
        10    -177388.1463063            0.120110            F

     path length          = 10.151 bohr
     inter-image distance =  1.128 bohr

     ------------------------------ iteration  32 ------------------------------

     tcpu = 154839.3    self-consistency for image   1
     tcpu = 155284.2    self-consistency for image   2
     tcpu = 155704.4    self-consistency for image   3
     tcpu = 156106.6    self-consistency for image   4
     tcpu = 156499.3    self-consistency for image   5
     tcpu = 156893.9    self-consistency for image   6
     tcpu = 157281.3    self-consistency for image   7
     tcpu = 157690.0    self-consistency for image   8
     tcpu = 158083.8    self-consistency for image   9
     tcpu = 158494.4    self-consistency for image  10

     activation energy (->) =   1.699525 eV
     activation energy (<-) =   1.703265 eV

     image        energy (eV)        error (eV/A)        frozen

         1    -177388.1418096            0.775283            F
         2    -177387.7990402            0.444021            F
         3    -177387.4141556            0.202972            F
         4    -177387.2423292            0.397442            F
         5    -177386.4524733            0.205479            F
         6    -177386.4422844            0.136974            F
         7    -177387.2292320            0.377342            F
         8    -177387.3886213            0.263240            F
         9    -177387.7961351            0.602083            F
        10    -177388.1455498            0.231157            F

     path length          = 10.158 bohr
     inter-image distance =  1.129 bohr

     ------------------------------ iteration  33 ------------------------------

     tcpu = 158941.6    self-consistency for image   1
     tcpu = 159348.1    self-consistency for image   2
     tcpu = 159758.9    self-consistency for image   3
     tcpu = 160155.2    self-consistency for image   4
     tcpu = 160564.6    self-consistency for image   5
     tcpu = 160957.0    self-consistency for image   6
     tcpu = 161351.1    self-consistency for image   7
     tcpu = 161759.7    self-consistency for image   8
     tcpu = 162160.3    self-consistency for image   9
     tcpu = 162574.0    self-consistency for image  10

     activation energy (->) =   1.700808 eV
     activation energy (<-) =   1.699558 eV

     image        energy (eV)        error (eV/A)        frozen

         1    -177388.1439613            0.730106            F
         2    -177387.7999305            0.426483            F
         3    -177387.4149126            0.198219            F
         4    -177387.2438706            0.382649            F
         5    -177386.4534276            0.193538            F
         6    -177386.4431537            0.130454            F
         7    -177387.2307365            0.362739            F
         8    -177387.3893583            0.262512            F
         9    -177387.7976637            0.576058            F
        10    -177388.1427116            0.370390            F

     path length          = 10.166 bohr
     inter-image distance =  1.130 bohr

     ------------------------------ iteration  34 ------------------------------

     tcpu = 163014.6    self-consistency for image   1
     tcpu = 163390.2    self-consistency for image   2
     tcpu = 163772.4    self-consistency for image   3
     tcpu = 164151.0    self-consistency for image   4
     tcpu = 164544.8    self-consistency for image   5
     tcpu = 164915.9    self-consistency for image   6
     tcpu = 165291.1    self-consistency for image   7
     tcpu = 165676.2    self-consistency for image   8
     tcpu = 166052.3    self-consistency for image   9
     tcpu = 166444.2    self-consistency for image  10

     activation energy (->) =   1.700900 eV
     activation energy (<-) =   1.699305 eV

     image        energy (eV)        error (eV/A)        frozen

         1    -177388.1441205            0.723942            F
         2    -177387.7999979            0.422256            F
         3    -177387.4149795            0.201704            F
         4    -177387.2439897            0.381345            F
         5    -177386.4535076            0.198647            F
         6    -177386.4432204            0.131063            F
         7    -177387.2308545            0.360506            F
         8    -177387.3894124            0.261461            F
         9    -177387.7977762            0.573142            F
        10    -177388.1425251            0.375926            F

     path length          = 10.166 bohr
     inter-image distance =  1.130 bohr

     ------------------------------ iteration  35 ------------------------------

     tcpu = 166842.6    self-consistency for image   1
     tcpu = 167217.9    self-consistency for image   2
     tcpu = 167602.1    self-consistency for image   3
     tcpu = 167966.5    self-consistency for image   4
     tcpu = 168398.3    self-consistency for image   5
     tcpu = 168811.8    self-consistency for image   6
     tcpu = 169243.1    self-consistency for image   7
     tcpu = 169671.5    self-consistency for image   8
     tcpu = 170103.9    self-consistency for image   9
     tcpu = 170546.9    self-consistency for image  10

     activation energy (->) =   1.700973 eV
     activation energy (<-) =   1.699190 eV

     image        energy (eV)        error (eV/A)        frozen

         1    -177388.1442476            0.722217            F
         2    -177387.8000507            0.421048            F
         3    -177387.4150232            0.200557            F
         4    -177387.2440741            0.380341            F
         5    -177386.4535586            0.197529            F
         6    -177386.4432746            0.131635            F
         7    -177387.2309372            0.359605            F
         8    -177387.3894516            0.262002            F
         9    -177387.7978579            0.571602            F
        10    -177388.1424645            0.378516            F

     path length          = 10.166 bohr
     inter-image distance =  1.130 bohr

     ------------------------------ iteration  36 ------------------------------

     tcpu = 170974.9    self-consistency for image   1
     tcpu = 171430.4    self-consistency for image   2
     tcpu = 171876.9    self-consistency for image   3
     tcpu = 172319.7    self-consistency for image   4
     tcpu = 172755.4    self-consistency for image   5
     tcpu = 173183.9    self-consistency for image   6
     tcpu = 173633.9    self-consistency for image   7
     tcpu = 174098.4    self-consistency for image   8
     tcpu = 174577.4    self-consistency for image   9
     tcpu = 175057.1    self-consistency for image  10

     activation energy (->) =   1.701096 eV
     activation energy (<-) =   1.699040 eV

     image        energy (eV)        error (eV/A)        frozen

         1    -177388.1444819            0.716425            F
         2    -177387.8001588            0.420708            F
         3    -177387.4151290            0.201791            F
         4    -177387.2442519            0.378098            F
         5    -177386.4536741            0.195857            F
         6    -177386.4433859            0.132169            F
         7    -177387.2311113            0.357281            F
         8    -177387.3895550            0.261702            F
         9    -177387.7980297            0.568133            F
        10    -177388.1424258            0.379143            F

     path length          = 10.167 bohr
     inter-image distance =  1.130 bohr

     ------------------------------ iteration  37 ------------------------------

     tcpu = 175547.1    self-consistency for image   1
     tcpu = 176020.7    self-consistency for image   2
     tcpu = 176508.8    self-consistency for image   3
     tcpu = 176963.8    self-consistency for image   4
     tcpu = 177386.4    self-consistency for image   5
     tcpu = 177825.5    self-consistency for image   6
     tcpu = 178287.5    self-consistency for image   7
     tcpu = 178757.8    self-consistency for image   8
     tcpu = 179244.1    self-consistency for image   9
     tcpu = 179747.5    self-consistency for image  10

     activation energy (->) =   1.701416 eV
     activation energy (<-) =   1.698721 eV

     image        energy (eV)        error (eV/A)        frozen

         1    -177388.1450686            0.705863            F
         2    -177387.8004088            0.414691            F
         3    -177387.4153672            0.200798            F
         4    -177387.2446905            0.372436            F
         5    -177386.4539701            0.192142            F
         6    -177386.4436524            0.130802            F
         7    -177387.2315394            0.351610            F
         8    -177387.3897847            0.259944            F
         9    -177387.7984503            0.559504            F
        10    -177388.1423730            0.378786            F

     path length          = 10.168 bohr
     inter-image distance =  1.130 bohr

     ------------------------------ iteration  38 ------------------------------

     tcpu = 180271.0    self-consistency for image   1
     tcpu = 180802.1    self-consistency for image   2
     tcpu = 181283.6    self-consistency for image   3
     tcpu = 181772.4    self-consistency for image   4
     tcpu = 182268.8    self-consistency for image   5
     tcpu = 182746.5    self-consistency for image   6
     tcpu = 183197.6    self-consistency for image   7
     tcpu = 183679.1    self-consistency for image   8
     tcpu = 184174.3    self-consistency for image   9
     tcpu = 184655.9    self-consistency for image  10

     activation energy (->) =   1.705405 eV
     activation energy (<-) =   1.693166 eV

     image        energy (eV)        error (eV/A)        frozen

         1    -177388.1536620            0.492758            F
         2    -177387.8044620            0.318346            F
         3    -177387.4195947            0.196778            F
         4    -177387.2522405            0.294427            F
         5    -177386.4588769            0.135693            F
         6    -177386.4482569            0.130407            F
         7    -177387.2389469            0.271968            F
         8    -177387.3938799            0.258505            F
         9    -177387.8051719            0.419252            F
        10    -177388.1414234            0.390981            F

     path length          = 10.186 bohr
     inter-image distance =  1.132 bohr

     ------------------------------ iteration  39 ------------------------------

     tcpu = 185133.3    self-consistency for image   1
     tcpu = 185623.3    self-consistency for image   2
     tcpu = 186129.4    self-consistency for image   3
     tcpu = 186622.1    self-consistency for image   4
     tcpu = 187131.1    self-consistency for image   5
     tcpu = 187639.1    self-consistency for image   6
     tcpu = 188117.7    self-consistency for image   7
     tcpu = 188618.2    self-consistency for image   8
     tcpu = 189120.1    self-consistency for image   9
     tcpu = 189639.4    self-consistency for image  10

     activation energy (->) =   1.704627 eV
     activation energy (<-) =   1.684795 eV

     image        energy (eV)        error (eV/A)        frozen

         1    -177388.1596257            0.192120            F
         2    -177387.8089998            0.149965            F
         3    -177387.4261476            0.187968            F
         4    -177387.2629005            0.204498            F
         5    -177386.4657166            0.120327            F
         6    -177386.4549985            0.133948            F
         7    -177387.2494160            0.177627            F
         8    -177387.4003037            0.251955            F
         9    -177387.8122109            0.167583            F
        10    -177388.1397938            0.408381            F

     path length          = 10.225 bohr
     inter-image distance =  1.136 bohr

     ------------------------------ iteration  40 ------------------------------

     tcpu = 190118.8    self-consistency for image   1
     tcpu = 190579.5    self-consistency for image   2
     tcpu = 191045.1    self-consistency for image   3
     tcpu = 191510.4    self-consistency for image   4
     tcpu = 192006.1    self-consistency for image   5
     tcpu = 192479.8    self-consistency for image   6
     tcpu = 192951.3    self-consistency for image   7
     tcpu = 193437.0    self-consistency for image   8
     tcpu = 193908.0    self-consistency for image   9
     tcpu = 194406.0    self-consistency for image  10

     activation energy (->) =   1.701893 eV
     activation energy (<-) =   1.682278 eV

     image        energy (eV)        error (eV/A)        frozen

         1    -177388.1588184            0.267639            F
         2    -177387.8098694            0.096199            F
         3    -177387.4281387            0.185152            F
         4    -177387.2658403            0.185280            F
         5    -177386.4675758            0.120004            F
         6    -177386.4569250            0.137468            F
         7    -177387.2523122            0.182215            F
         8    -177387.4022640            0.251147            F
         9    -177387.8133618            0.082805            F
        10    -177388.1392034            0.406104            F

     path length          = 10.239 bohr
     inter-image distance =  1.138 bohr

     ------------------------------ iteration  41 ------------------------------

     tcpu = 194859.6    self-consistency for image   1
     tcpu = 195309.8    self-consistency for image   2
     tcpu = 195773.0    self-consistency for image   3
     tcpu = 196225.1    self-consistency for image   4
     tcpu = 196691.0    self-consistency for image   5
     tcpu = 197140.3    self-consistency for image   6
     tcpu = 197585.0    self-consistency for image   7
     tcpu = 198038.1    self-consistency for image   8
     tcpu = 198489.0    self-consistency for image   9
     tcpu = 198937.3    self-consistency for image  10

     activation energy (->) =   1.700595 eV
     activation energy (<-) =   1.681636 eV

     image        energy (eV)        error (eV/A)        frozen

         1    -177388.1581031            0.292708            F
         2    -177387.8100866            0.078528            F
         3    -177387.4287413            0.179577            F
         4    -177387.2667177            0.180903            F
         5    -177386.4681249            0.117373            F
         6    -177386.4575079            0.138380            F
         7    -177387.2531712            0.183916            F
         8    -177387.4028816            0.249353            F
         9    -177387.8136014            0.063864            F
        10    -177388.1391441            0.412745            F

     path length          = 10.244 bohr
     inter-image distance =  1.138 bohr

     ------------------------------ iteration  42 ------------------------------

     tcpu = 199373.3    self-consistency for image   1
     tcpu = 199803.4    self-consistency for image   2
     tcpu = 200233.1    self-consistency for image   3
     tcpu = 200677.2    self-consistency for image   4
     tcpu = 201107.1    self-consistency for image   5
     tcpu = 201543.3    self-consistency for image   6
     tcpu = 201897.5    self-consistency for image   7
     tcpu = 202280.8    self-consistency for image   8
     tcpu = 202660.3    self-consistency for image   9
     tcpu = 203049.1    self-consistency for image  10

     activation energy (->) =   1.700536 eV
     activation energy (<-) =   1.681611 eV

     image        energy (eV)        error (eV/A)        frozen

         1    -177388.1580854            0.292368            F
         2    -177387.8100961            0.075277            F
         3    -177387.4287932            0.182874            F
         4    -177387.2667648            0.179835            F
         5    -177386.4681624            0.118881            F
         6    -177386.4575498            0.138774            F
         7    -177387.2532147            0.184121            F
         8    -177387.4029153            0.247213            F
         9    -177387.8136127            0.064073            F
        10    -177388.1391604            0.412222            F

     path length          = 10.244 bohr
     inter-image distance =  1.138 bohr

     ------------------------------ iteration  43 ------------------------------

     tcpu = 203431.2    self-consistency for image   1
     tcpu = 203824.0    self-consistency for image   2
     tcpu = 204184.3    self-consistency for image   3
     tcpu = 204569.2    self-consistency for image   4
     tcpu = 204945.8    self-consistency for image   5
     tcpu = 205307.7    self-consistency for image   6
     tcpu = 205747.6    self-consistency for image   7
     tcpu = 206138.0    self-consistency for image   8
     tcpu = 206533.9    self-consistency for image   9
     tcpu = 206913.9    self-consistency for image  10

     activation energy (->) =   1.700470 eV
     activation energy (<-) =   1.681604 eV

     image        energy (eV)        error (eV/A)        frozen

         1    -177388.1580543            0.290117            F
         2    -177387.8100953            0.076127            F
         3    -177387.4288273            0.182081            F
         4    -177387.2667969            0.180036            F
         5    -177386.4681961            0.119082            F
         6    -177386.4575838            0.138390            F
         7    -177387.2532522            0.184207            F
         8    -177387.4029587            0.248499            F
         9    -177387.8136194            0.064758            F
        10    -177388.1391880            0.410203            F

     path length          = 10.245 bohr
     inter-image distance =  1.138 bohr

     ------------------------------ iteration  44 ------------------------------

     tcpu = 207308.1    self-consistency for image   1
     tcpu = 207714.3    self-consistency for image   2
     tcpu = 208109.9    self-consistency for image   3
     tcpu = 208506.9    self-consistency for image   4
     tcpu = 208901.2    self-consistency for image   5
     tcpu = 209295.8    self-consistency for image   6
     tcpu = 209685.2    self-consistency for image   7
     tcpu = 210080.6    self-consistency for image   8
     tcpu = 210517.2    self-consistency for image   9
     tcpu = 210958.2    self-consistency for image  10

     activation energy (->) =   1.700426 eV
     activation energy (<-) =   1.681587 eV

     image        energy (eV)        error (eV/A)        frozen

         1    -177388.1581771            0.284555            F
         2    -177387.8101291            0.075572            F
         3    -177387.4290147            0.182450            F
         4    -177387.2670031            0.178781            F
         5    -177386.4683545            0.118936            F
         6    -177386.4577506            0.139372            F
         7    -177387.2534553            0.187653            F
         8    -177387.4031456            0.246936            F
         9    -177387.8136506            0.063881            F
        10    -177388.1393380            0.406409            F

     path length          = 10.246 bohr
     inter-image distance =  1.138 bohr

     ------------------------------ iteration  45 ------------------------------

     tcpu = 211421.7    self-consistency for image   1
     tcpu = 211852.9    self-consistency for image   2
     tcpu = 212279.9    self-consistency for image   3
     tcpu = 212682.7    self-consistency for image   4
     tcpu = 213085.2    self-consistency for image   5
     tcpu = 213476.6    self-consistency for image   6
     tcpu = 213871.3    self-consistency for image   7
     tcpu = 214320.5    self-consistency for image   8
     tcpu = 214759.8    self-consistency for image   9
     tcpu = 215218.1    self-consistency for image  10

     activation energy (->) =   1.700167 eV
     activation energy (<-) =   1.681537 eV

     image        energy (eV)        error (eV/A)        frozen

         1    -177388.1586503            0.272797            F
         2    -177387.8102215            0.067288            F
         3    -177387.4298606            0.180958            F
         4    -177387.2679069            0.175513            F
         5    -177386.4690434            0.116206            F
         6    -177386.4584837            0.139309            F
         7    -177387.2543423            0.184810            F
         8    -177387.4039979            0.248410            F
         9    -177387.8137474            0.059796            F
        10    -177388.1400212            0.377123            F

     path length          = 10.251 bohr
     inter-image distance =  1.139 bohr

     ------------------------------ iteration  46 ------------------------------

     tcpu = 215710.1    self-consistency for image   1
     tcpu = 216178.2    self-consistency for image   2
     tcpu = 216635.1    self-consistency for image   3
     tcpu = 217097.1    self-consistency for image   4
     tcpu = 217566.8    self-consistency for image   5
     tcpu = 218033.2    self-consistency for image   6
     tcpu = 218502.5    self-consistency for image   7
     tcpu = 218976.7    self-consistency for image   8
     tcpu = 219437.4    self-consistency for image   9
     tcpu = 219878.9    self-consistency for image  10

     activation energy (->) =   1.696477 eV
     activation energy (<-) =   1.678094 eV

     image        energy (eV)        error (eV/A)        frozen

         1    -177388.1631251            0.261882            F
         2    -177387.8110122            0.059229            F
         3    -177387.4392796            0.171967            F
         4    -177387.2775230            0.164417            F
         5    -177386.4766784            0.122328            F
         6    -177386.4666485            0.147462            F
         7    -177387.2639102            0.185883            F
         8    -177387.4135930            0.241247            F
         9    -177387.8145287            0.078699            F
        10    -177388.1447427            0.131501            F

     path length          = 10.312 bohr
     inter-image distance =  1.146 bohr

     ------------------------------ iteration  47 ------------------------------

     tcpu = 220346.6    self-consistency for image   1
     tcpu = 220794.0    self-consistency for image   2
     tcpu = 221230.2    self-consistency for image   3
     tcpu = 221696.6    self-consistency for image   4
     tcpu = 222162.7    self-consistency for image   5
     tcpu = 222641.8    self-consistency for image   6
     tcpu = 223111.5    self-consistency for image   7
     tcpu = 223585.3    self-consistency for image   8
     tcpu = 224044.5    self-consistency for image   9
     tcpu = 224476.8    self-consistency for image  10

     activation energy (->) =   1.691633 eV
     activation energy (<-) =   1.657665 eV

     image        energy (eV)        error (eV/A)        frozen

         1    -177388.1649386            0.366451            F
         2    -177387.8110340            0.093448            F
         3    -177387.4472615            0.161749            F
         4    -177387.2850367            0.157670            F
         5    -177386.4828294            0.127837            F
         6    -177386.4733053            0.153641            F
         7    -177387.2715183            0.183535            F
         8    -177387.4218338            0.233260            F
         9    -177387.8144788            0.134779            F
        10    -177388.1309704            1.829796            F

     path length          = 10.374 bohr
     inter-image distance =  1.153 bohr

     ------------------------------ iteration  48 ------------------------------

     tcpu = 224935.6    self-consistency for image   1
     tcpu = 225311.4    self-consistency for image   2
     tcpu = 225733.7    self-consistency for image   3
     tcpu = 226134.3    self-consistency for image   4
     tcpu = 226527.0    self-consistency for image   5
     tcpu = 226913.2    self-consistency for image   6
     tcpu = 227300.5    self-consistency for image   7
     tcpu = 227687.2    self-consistency for image   8
     tcpu = 228077.3    self-consistency for image   9
     tcpu = 228460.2    self-consistency for image  10

     activation energy (->) =   1.691485 eV
     activation energy (<-) =   1.656836 eV

     image        energy (eV)        error (eV/A)        frozen

         1    -177388.1649595            0.366351            F
         2    -177387.8110387            0.097302            F
         3    -177387.4474733            0.160118            F
         4    -177387.2852249            0.160418            F
         5    -177386.4829854            0.127373            F
         6    -177386.4734744            0.153375            F
         7    -177387.2717103            0.185992            F
         8    -177387.4220575            0.231309            F
         9    -177387.8144805            0.137929            F
        10    -177388.1303100            1.890368            F

     path length          = 10.376 bohr
     inter-image distance =  1.153 bohr

     ------------------------------ iteration  49 ------------------------------

     tcpu = 228843.8    self-consistency for image   1
     tcpu = 229216.8    self-consistency for image   2
     tcpu = 229586.7    self-consistency for image   3
     tcpu = 229968.2    self-consistency for image   4
     tcpu = 230337.0    self-consistency for image   5
     tcpu = 230700.2    self-consistency for image   6
     tcpu = 231101.8    self-consistency for image   7
     tcpu = 231487.2    self-consistency for image   8
     tcpu = 231869.3    self-consistency for image   9
     tcpu = 232255.6    self-consistency for image  10

     activation energy (->) =   1.691465 eV
     activation energy (<-) =   1.657165 eV

     image        energy (eV)        error (eV/A)        frozen

         1    -177388.1649547            0.362646            F
         2    -177387.8110377            0.095590            F
         3    -177387.4474979            0.161292            F
         4    -177387.2852466            0.156991            F
         5    -177386.4830014            0.127429            F
         6    -177386.4734894            0.153567            F
         7    -177387.2717288            0.182660            F
         8    -177387.4220887            0.231629            F
         9    -177387.8144725            0.137208            F
        10    -177388.1306549            1.857580            F

     path length          = 10.377 bohr
     inter-image distance =  1.153 bohr

     ------------------------------ iteration  50 ------------------------------

     tcpu = 232640.6    self-consistency for image   1
     tcpu = 233017.6    self-consistency for image   2
     tcpu = 233395.6    self-consistency for image   3
     tcpu = 233785.2    self-consistency for image   4
     tcpu = 234153.8    self-consistency for image   5
     tcpu = 234526.7    self-consistency for image   6
     tcpu = 234910.1    self-consistency for image   7
     tcpu = 235289.3    self-consistency for image   8
     tcpu = 235670.0    self-consistency for image   9
     tcpu = 236051.7    self-consistency for image  10

     activation energy (->) =   1.691514 eV
     activation energy (<-) =   1.658245 eV

     image        energy (eV)        error (eV/A)        frozen

         1    -177388.1650432            0.351457            F
         2    -177387.8110327            0.094440            F
         3    -177387.4475406            0.160496            F
         4    -177387.2852777            0.157332            F
         5    -177386.4830319            0.127565            F
         6    -177386.4735295            0.153666            F
         7    -177387.2717662            0.182354            F
         8    -177387.4221321            0.231402            F
         9    -177387.8144812            0.136125            F
        10    -177388.1317743            1.748449            F

     path length          = 10.377 bohr
     inter-image distance =  1.153 bohr

     ------------------------------ iteration  51 ------------------------------

     tcpu = 236448.2    self-consistency for image   1
     tcpu = 236852.7    self-consistency for image   2
     tcpu = 237241.2    self-consistency for image   3
     tcpu = 237647.5    self-consistency for image   4
     tcpu = 238057.7    self-consistency for image   5
     tcpu = 238453.1    self-consistency for image   6
     tcpu = 238848.4    self-consistency for image   7
     tcpu = 239245.9    self-consistency for image   8
     tcpu = 239652.9    self-consistency for image   9
     tcpu = 240049.8    self-consistency for image  10

     activation energy (->) =   1.691668 eV
     activation energy (<-) =   1.667556 eV

     image        energy (eV)        error (eV/A)        frozen

         1    -177388.1656786            0.200350            F
         2    -177387.8110747            0.095701            F
         3    -177387.4481391            0.159734            F
         4    -177387.2857248            0.153327            F
         5    -177386.4834754            0.126978            F
         6    -177386.4740110            0.152169            F
         7    -177387.2722283            0.177944            F
         8    -177387.4227558            0.232547            F
         9    -177387.8145732            0.122998            F
        10    -177388.1415665            0.596950            F

     path length          = 10.385 bohr
     inter-image distance =  1.154 bohr

     ------------------------------ iteration  52 ------------------------------

     tcpu = 240499.3    self-consistency for image   1
     tcpu = 240894.5    self-consistency for image   2
     tcpu = 241286.2    self-consistency for image   3
     tcpu = 241689.5    self-consistency for image   4
     tcpu = 242077.7    self-consistency for image   5
     tcpu = 242468.0    self-consistency for image   6
     tcpu = 242859.2    self-consistency for image   7
     tcpu = 243246.2    self-consistency for image   8
     tcpu = 243639.6    self-consistency for image   9
     tcpu = 244065.4    self-consistency for image  10

     activation energy (->) =   1.691516 eV
     activation energy (<-) =   1.669696 eV

     image        energy (eV)        error (eV/A)        frozen

         1    -177388.1661144            0.056984            F
         2    -177387.8111186            0.091944            F
         3    -177387.4488533            0.159813            F
         4    -177387.2862608            0.153943            F
         5    -177386.4840196            0.125316            F
         6    -177386.4745980            0.151613            F
         7    -177387.2727928            0.179381            F
         8    -177387.4235115            0.232187            F
         9    -177387.8146732            0.112542            F
        10    -177388.1442943            0.167556            F

     path length          = 10.394 bohr
     inter-image distance =  1.155 bohr

     ------------------------------ iteration  53 ------------------------------

     tcpu = 244504.4    self-consistency for image   1
     tcpu = 244927.9    self-consistency for image   2
     tcpu = 245342.5    self-consistency for image   3
     tcpu = 245743.4    self-consistency for image   4
     tcpu = 246152.0    self-consistency for image   5
     tcpu = 246549.6    self-consistency for image   6
     tcpu = 246982.4    self-consistency for image   7
     tcpu = 247456.2    self-consistency for image   8
     tcpu = 247933.1    self-consistency for image   9
     tcpu = 248408.1    self-consistency for image  10

     activation energy (->) =   1.691053 eV
     activation energy (<-) =   1.668197 eV

     image        energy (eV)        error (eV/A)        frozen

         1    -177388.1662720            0.060122            F
         2    -177387.8111589            0.087683            F
         3    -177387.4496156            0.159088            F
         4    -177387.2868438            0.152629            F
         5    -177386.4845933            0.124940            F
         6    -177386.4752194            0.151182            F
         7    -177387.2733975            0.179034            F
         8    -177387.4243158            0.231831            F
         9    -177387.8147713            0.104780            F
        10    -177388.1434162            0.173823            F

     path length          = 10.404 bohr
     inter-image distance =  1.156 bohr

     ------------------------------ iteration  54 ------------------------------

     tcpu = 248905.7    self-consistency for image   1
     tcpu = 249398.9    self-consistency for image   2
     tcpu = 249877.6    self-consistency for image   3

     WARNING :  scf convergence NOT achieved on image   3

     cleaning-up extrapolation files

 
     NEB          :     23h12m CPU   2d21h32m WALL

 
   This run was terminated on:   0:35:39  22Jun2025            

=------------------------------------------------------------------------------=
   JOB DONE.
=------------------------------------------------------------------------------=
