
     Program NEB v.7.2 starts on  6Nov2024 at 22:20:25 

     This program is part of the open-source Quantum ESPRESSO suite
     for quantum simulation of materials; please cite
         "P. Giannozzi et al., J. Phys.:Condens. Matter 21 395502 (2009);
         "P. Giannozzi et al., J. Phys.:Condens. Matter 29 465901 (2017);
         "P. Giannozzi et al., J. Chem. Phys. 152 154105 (2020);
          URL http://www.quantum-espresso.org", 
     in publications or presentations arising from this work. More details at
     http://www.quantum-espresso.org/quote

     Parallel version (MPI), running on    96 processors

     MPI processes distributed on     2 nodes
     160181 MiB available memory on the printing compute node when the environment starts
 

     Parsing file: neb.in
     Reading input from pw_1.in
Warning: card &CELL ignored
Warning: card   CELL_DYNAMICS='BFGS', ignored
Warning: card   PRESS=0.0, ignored
Warning: card   PRESS_CONV_THR=0.5, ignored
Warning: card / ignored
     Reading input from pw_2.in
Warning: card &CELL ignored
Warning: card   CELL_DYNAMICS='BFGS', ignored
Warning: card   PRESS=0.0, ignored
Warning: card   PRESS_CONV_THR=0.5, ignored
Warning: card / ignored

     File ./out/sb2te3_1/sb2te3.update deleted, as requested

     File ./out/sb2te3_1/PW.out deleted, as requested

     initial path length           =  7.4581 bohr
     initial inter-image distance  =  1.8645 bohr
 
     string_method                 =    neb
     restart_mode                  =    from_scratch
     opt_scheme                    =    broyden
     num_of_images                 =    5
     nstep_path                    =    1000
     CI_scheme                     =    no-CI
     first_last_opt                =    T
     use_freezing                  =    F
     ds                            =    0.0756 a.u.
     k_max                         =    0.1000 a.u.
     k_min                         =    0.0050 a.u.
     suggested k_max               =  107.9285 a.u.
     suggested k_min               =    5.3964 a.u.
     path_thr                      =    0.0010 eV / A

     ------------------------------ iteration   1 ------------------------------

     tcpu =      0.5    self-consistency for image   1
     Message from routine setup:
     using ibrav=0 with symmetry is DISCOURAGED, use correct ibrav instead
     tcpu =     48.9    self-consistency for image   2
     Message from routine setup:
     using ibrav=0 with symmetry is DISCOURAGED, use correct ibrav instead
     tcpu =     95.7    self-consistency for image   3
     Message from routine setup:
     using ibrav=0 with symmetry is DISCOURAGED, use correct ibrav instead
     tcpu =    151.0    self-consistency for image   4
     Message from routine setup:
     using ibrav=0 with symmetry is DISCOURAGED, use correct ibrav instead
     tcpu =    196.0    self-consistency for image   5
     Message from routine setup:
     using ibrav=0 with symmetry is DISCOURAGED, use correct ibrav instead

     activation energy (->) =   5.704731 eV
     activation energy (<-) =   4.799123 eV

     image        energy (eV)        error (eV/A)        frozen

         1    -133596.3164592            0.688936            F
         2    -133595.2193963            2.960573            F
         3    -133590.6117284            8.118643            F
         4    -133594.0819505            3.142824            F
         5    -133595.4108515            0.756492            F

     path length          =  7.458 bohr
     inter-image distance =  1.865 bohr

     ------------------------------ iteration   2 ------------------------------

     tcpu =    245.6    self-consistency for image   1
     Message from routine setup:
     using ibrav=0 with symmetry is DISCOURAGED, use correct ibrav instead
     tcpu =    261.9    self-consistency for image   2
     Message from routine setup:
     using ibrav=0 with symmetry is DISCOURAGED, use correct ibrav instead
     tcpu =    279.4    self-consistency for image   3
     Message from routine setup:
     using ibrav=0 with symmetry is DISCOURAGED, use correct ibrav instead
     tcpu =    297.1    self-consistency for image   4
     Message from routine setup:
     using ibrav=0 with symmetry is DISCOURAGED, use correct ibrav instead
     tcpu =    316.1    self-consistency for image   5
     Message from routine setup:
     using ibrav=0 with symmetry is DISCOURAGED, use correct ibrav instead

     activation energy (->) =   5.693144 eV
     activation energy (<-) =   4.787543 eV

     image        energy (eV)        error (eV/A)        frozen

         1    -133596.3170933            0.684767            F
         2    -133595.2207062            2.942938            F
         3    -133590.6239491            8.031550            F
         4    -133594.0851577            3.127507            F
         5    -133595.4114922            0.749916            F

     path length          =  7.458 bohr
     inter-image distance =  1.865 bohr

     ------------------------------ iteration   3 ------------------------------

     tcpu =    334.4    self-consistency for image   1
     Message from routine setup:
     using ibrav=0 with symmetry is DISCOURAGED, use correct ibrav instead
     tcpu =    374.9    self-consistency for image   2
     Message from routine setup:
     using ibrav=0 with symmetry is DISCOURAGED, use correct ibrav instead
     tcpu =    425.1    self-consistency for image   3
     Message from routine setup:
     using ibrav=0 with symmetry is DISCOURAGED, use correct ibrav instead
     tcpu =    482.5    self-consistency for image   4
     Message from routine setup:
     using ibrav=0 with symmetry is DISCOURAGED, use correct ibrav instead
     tcpu =    537.8    self-consistency for image   5
     Message from routine setup:
     using ibrav=0 with symmetry is DISCOURAGED, use correct ibrav instead

     activation energy (->) =   4.471536 eV
     activation energy (<-) =   3.565888 eV

     image        energy (eV)        error (eV/A)        frozen

         1    -133596.3917116            0.645865            F
         2    -133595.3728657            2.896831            F
         3    -133591.9201754            5.950219            F
         4    -133594.4424719            2.450400            F
         5    -133595.4860633            0.729092            F

     path length          =  7.469 bohr
     inter-image distance =  1.867 bohr

     ------------------------------ iteration   4 ------------------------------

     tcpu =    579.2    self-consistency for image   1
     Message from routine setup:
     using ibrav=0 with symmetry is DISCOURAGED, use correct ibrav instead
     tcpu =    635.1    self-consistency for image   2
     Message from routine setup:
     using ibrav=0 with symmetry is DISCOURAGED, use correct ibrav instead
     tcpu =    693.0    self-consistency for image   3
     Message from routine setup:
     using ibrav=0 with symmetry is DISCOURAGED, use correct ibrav instead
     tcpu =    750.1    self-consistency for image   4
     Message from routine setup:
     using ibrav=0 with symmetry is DISCOURAGED, use correct ibrav instead
     tcpu =    810.3    self-consistency for image   5
     Message from routine setup:
     using ibrav=0 with symmetry is DISCOURAGED, use correct ibrav instead

     activation energy (->) =   2.754569 eV
     activation energy (<-) =   1.851958 eV

     image        energy (eV)        error (eV/A)        frozen

         1    -133596.5553321            0.543067            F
         2    -133595.6942702            2.701832            F
         3    -133593.8007626            2.273452            F
         4    -133595.0843235            1.974053            F
         5    -133595.6527206            0.662083            F

     path length          =  7.619 bohr
     inter-image distance =  1.905 bohr

     ------------------------------ iteration   5 ------------------------------

     tcpu =    857.2    self-consistency for image   1
     Message from routine setup:
     using ibrav=0 with symmetry is DISCOURAGED, use correct ibrav instead
     tcpu =    911.1    self-consistency for image   2
     Message from routine setup:
     using ibrav=0 with symmetry is DISCOURAGED, use correct ibrav instead
     tcpu =    966.1    self-consistency for image   3
     Message from routine setup:
     using ibrav=0 with symmetry is DISCOURAGED, use correct ibrav instead
     tcpu =   1032.1    self-consistency for image   4
     Message from routine setup:
     using ibrav=0 with symmetry is DISCOURAGED, use correct ibrav instead
     tcpu =   1088.1    self-consistency for image   5
     Message from routine setup:
     using ibrav=0 with symmetry is DISCOURAGED, use correct ibrav instead

     activation energy (->) =   2.283802 eV
     activation energy (<-) =   1.387853 eV

     image        energy (eV)        error (eV/A)        frozen

         1    -133596.6929402            0.476493            F
         2    -133595.9444954            2.413221            F
         3    -133594.4091379            1.240484            F
         4    -133595.4579903            1.444672            F
         5    -133595.7969909            0.591522            F

     path length          =  7.938 bohr
     inter-image distance =  1.984 bohr

     ------------------------------ iteration   6 ------------------------------

     tcpu =   1137.3    self-consistency for image   1
     Message from routine setup:
     using ibrav=0 with symmetry is DISCOURAGED, use correct ibrav instead
     tcpu =   1211.8    self-consistency for image   2
     Message from routine setup:
     using ibrav=0 with symmetry is DISCOURAGED, use correct ibrav instead
     tcpu =   1270.2    self-consistency for image   3
     Message from routine setup:
     using ibrav=0 with symmetry is DISCOURAGED, use correct ibrav instead
     tcpu =   1322.9    self-consistency for image   4
     Message from routine setup:
     using ibrav=0 with symmetry is DISCOURAGED, use correct ibrav instead
     tcpu =   1373.6    self-consistency for image   5
     Message from routine setup:
     using ibrav=0 with symmetry is DISCOURAGED, use correct ibrav instead

     activation energy (->) =   2.653452 eV
     activation energy (<-) =   1.768154 eV

     image        energy (eV)        error (eV/A)        frozen

         1    -133596.8033056            0.420114            F
         2    -133596.1206955            2.145525            F
         3    -133594.1498536            2.137240            F
         4    -133595.6183416            1.147156            F
         5    -133595.9180075            0.513718            F

     path length          =  8.410 bohr
     inter-image distance =  2.102 bohr

     ------------------------------ iteration   7 ------------------------------

     tcpu =   1425.7    self-consistency for image   1
     Message from routine setup:
     using ibrav=0 with symmetry is DISCOURAGED, use correct ibrav instead
     tcpu =   1441.9    self-consistency for image   2
     Message from routine setup:
     using ibrav=0 with symmetry is DISCOURAGED, use correct ibrav instead
     tcpu =   1458.2    self-consistency for image   3
     Message from routine setup:
     using ibrav=0 with symmetry is DISCOURAGED, use correct ibrav instead
     tcpu =   1475.8    self-consistency for image   4
     Message from routine setup:
     using ibrav=0 with symmetry is DISCOURAGED, use correct ibrav instead
     tcpu =   1492.2    self-consistency for image   5
     Message from routine setup:
     using ibrav=0 with symmetry is DISCOURAGED, use correct ibrav instead

     activation energy (->) =   2.652847 eV
     activation energy (<-) =   1.767626 eV

     image        energy (eV)        error (eV/A)        frozen

         1    -133596.8036228            0.416566            F
         2    -133596.1212870            2.124803            F
         3    -133594.1507762            2.139576            F
         4    -133595.6189791            1.140005            F
         5    -133595.9184026            0.507810            F

     path length          =  8.410 bohr
     inter-image distance =  2.103 bohr

     ------------------------------ iteration   8 ------------------------------

     tcpu =   1508.8    self-consistency for image   1
     Message from routine setup:
     using ibrav=0 with symmetry is DISCOURAGED, use correct ibrav instead
     tcpu =   1525.5    self-consistency for image   2
     Message from routine setup:
     using ibrav=0 with symmetry is DISCOURAGED, use correct ibrav instead
     tcpu =   1547.7    self-consistency for image   3
     Message from routine setup:
     using ibrav=0 with symmetry is DISCOURAGED, use correct ibrav instead
     tcpu =   1565.0    self-consistency for image   4
     Message from routine setup:
     using ibrav=0 with symmetry is DISCOURAGED, use correct ibrav instead
     tcpu =   1581.3    self-consistency for image   5
     Message from routine setup:
     using ibrav=0 with symmetry is DISCOURAGED, use correct ibrav instead

     activation energy (->) =   2.648846 eV
     activation energy (<-) =   1.763838 eV

     image        energy (eV)        error (eV/A)        frozen

         1    -133596.8043278            0.408640            F
         2    -133596.1227072            2.137574            F
         3    -133594.1554822            2.089341            F
         4    -133595.6207553            1.142052            F
         5    -133595.9193200            0.498691            F

     path length          =  8.409 bohr
     inter-image distance =  2.102 bohr

     ------------------------------ iteration   9 ------------------------------

     tcpu =   1598.2    self-consistency for image   1
     Message from routine setup:
     using ibrav=0 with symmetry is DISCOURAGED, use correct ibrav instead
     tcpu =   1632.5    self-consistency for image   2
     Message from routine setup:
     using ibrav=0 with symmetry is DISCOURAGED, use correct ibrav instead
     tcpu =   1679.7    self-consistency for image   3
     Message from routine setup:
     using ibrav=0 with symmetry is DISCOURAGED, use correct ibrav instead
     tcpu =   1716.5    self-consistency for image   4
     Message from routine setup:
     using ibrav=0 with symmetry is DISCOURAGED, use correct ibrav instead
     tcpu =   1751.9    self-consistency for image   5
     Message from routine setup:
     using ibrav=0 with symmetry is DISCOURAGED, use correct ibrav instead

     activation energy (->) =   2.594436 eV
     activation energy (<-) =   1.712243 eV

     image        energy (eV)        error (eV/A)        frozen

         1    -133596.8135878            0.415504            F
         2    -133596.1411787            2.052317            F
         3    -133594.2191516            2.028738            F
         4    -133595.6442103            1.097218            F
         5    -133595.9313943            0.507428            F

     path length          =  8.392 bohr
     inter-image distance =  2.098 bohr

     ------------------------------ iteration  10 ------------------------------

     tcpu =   1781.1    self-consistency for image   1
     Message from routine setup:
     using ibrav=0 with symmetry is DISCOURAGED, use correct ibrav instead
     tcpu =   1849.8    self-consistency for image   2
     Message from routine setup:
     using ibrav=0 with symmetry is DISCOURAGED, use correct ibrav instead
     tcpu =   1905.4    self-consistency for image   3
     Message from routine setup:
     using ibrav=0 with symmetry is DISCOURAGED, use correct ibrav instead
     tcpu =   1969.8    self-consistency for image   4
     Message from routine setup:
     using ibrav=0 with symmetry is DISCOURAGED, use correct ibrav instead
     tcpu =   2025.5    self-consistency for image   5
     Message from routine setup:
     using ibrav=0 with symmetry is DISCOURAGED, use correct ibrav instead

     activation energy (->) =   2.000682 eV
     activation energy (<-) =   1.163452 eV

     image        energy (eV)        error (eV/A)        frozen

         1    -133596.9380842            0.367365            F
         2    -133596.3180274            1.379914            F
         3    -133594.9374018            0.946290            F
         4    -133595.9477502            0.795071            F
         5    -133596.1008541            0.419177            F

     path length          =  8.249 bohr
     inter-image distance =  2.062 bohr

     ------------------------------ iteration  11 ------------------------------

     tcpu =   2075.8    self-consistency for image   1
     Message from routine setup:
     using ibrav=0 with symmetry is DISCOURAGED, use correct ibrav instead
     tcpu =   2149.4    self-consistency for image   2
     Message from routine setup:
     using ibrav=0 with symmetry is DISCOURAGED, use correct ibrav instead
     tcpu =   2204.9    self-consistency for image   3
     Message from routine setup:
     using ibrav=0 with symmetry is DISCOURAGED, use correct ibrav instead
     tcpu =   2269.6    self-consistency for image   4
     Message from routine setup:
     using ibrav=0 with symmetry is DISCOURAGED, use correct ibrav instead
     tcpu =   2331.0    self-consistency for image   5
     Message from routine setup:
     using ibrav=0 with symmetry is DISCOURAGED, use correct ibrav instead

     activation energy (->) =   1.745702 eV
     activation energy (<-) =   0.954436 eV

     image        energy (eV)        error (eV/A)        frozen

         1    -133597.0294012            0.319851            F
         2    -133596.3228454            1.339507            F
         3    -133595.2836992            0.840860            F
         4    -133596.1402994            0.702968            F
         5    -133596.2381353            0.316589            F

     path length          =  8.346 bohr
     inter-image distance =  2.086 bohr

     ------------------------------ iteration  12 ------------------------------

     tcpu =   2385.3    self-consistency for image   1
     Message from routine setup:
     using ibrav=0 with symmetry is DISCOURAGED, use correct ibrav instead
     tcpu =   2426.1    self-consistency for image   2
     Message from routine setup:
     using ibrav=0 with symmetry is DISCOURAGED, use correct ibrav instead
     tcpu =   2473.2    self-consistency for image   3
     Message from routine setup:
     using ibrav=0 with symmetry is DISCOURAGED, use correct ibrav instead
     tcpu =   2520.2    self-consistency for image   4
     Message from routine setup:
     using ibrav=0 with symmetry is DISCOURAGED, use correct ibrav instead
     tcpu =   2566.1    self-consistency for image   5
     Message from routine setup:
     using ibrav=0 with symmetry is DISCOURAGED, use correct ibrav instead

     activation energy (->) =   1.725008 eV
     activation energy (<-) =   0.943743 eV

     image        energy (eV)        error (eV/A)        frozen

         1    -133597.0449741            0.310012            F
         2    -133596.3027919            1.271670            F
         3    -133595.3199658            0.829618            F
         4    -133596.1665146            0.700965            F
         5    -133596.2637083            0.292623            F

     path length          =  8.402 bohr
     inter-image distance =  2.101 bohr

     ------------------------------ iteration  13 ------------------------------

     tcpu =   2604.2    self-consistency for image   1
     Message from routine setup:
     using ibrav=0 with symmetry is DISCOURAGED, use correct ibrav instead
     tcpu =   2627.4    self-consistency for image   2
     Message from routine setup:
     using ibrav=0 with symmetry is DISCOURAGED, use correct ibrav instead
     tcpu =   2658.7    self-consistency for image   3
     Message from routine setup:
     using ibrav=0 with symmetry is DISCOURAGED, use correct ibrav instead
     tcpu =   2683.2    self-consistency for image   4
     Message from routine setup:
     using ibrav=0 with symmetry is DISCOURAGED, use correct ibrav instead
     tcpu =   2706.8    self-consistency for image   5
     Message from routine setup:
     using ibrav=0 with symmetry is DISCOURAGED, use correct ibrav instead

     activation energy (->) =   1.723879 eV
     activation energy (<-) =   0.943194 eV

     image        energy (eV)        error (eV/A)        frozen

         1    -133597.0458305            0.309799            F
         2    -133596.3019018            1.266344            F
         3    -133595.3219513            0.829530            F
         4    -133596.1680221            0.700867            F
         5    -133596.2651456            0.291202            F

     path length          =  8.406 bohr
     inter-image distance =  2.101 bohr

     ------------------------------ iteration  14 ------------------------------

     tcpu =   2728.6    self-consistency for image   1
     Message from routine setup:
     using ibrav=0 with symmetry is DISCOURAGED, use correct ibrav instead
     tcpu =   2745.5    self-consistency for image   2
     Message from routine setup:
     using ibrav=0 with symmetry is DISCOURAGED, use correct ibrav instead
     tcpu =   2762.5    self-consistency for image   3
     Message from routine setup:
     using ibrav=0 with symmetry is DISCOURAGED, use correct ibrav instead
     tcpu =   2780.1    self-consistency for image   4
     Message from routine setup:
     using ibrav=0 with symmetry is DISCOURAGED, use correct ibrav instead
     tcpu =   2797.1    self-consistency for image   5
     Message from routine setup:
     using ibrav=0 with symmetry is DISCOURAGED, use correct ibrav instead

     activation energy (->) =   1.723465 eV
     activation energy (<-) =   0.942868 eV

     image        energy (eV)        error (eV/A)        frozen

         1    -133597.0459655            0.308690            F
         2    -133596.3022217            1.264939            F
         3    -133595.3225004            0.829028            F
         4    -133596.1683987            0.696027            F
         5    -133596.2653682            0.287237            F

     path length          =  8.406 bohr
     inter-image distance =  2.101 bohr

     ------------------------------ iteration  15 ------------------------------

     tcpu =   2814.6    self-consistency for image   1
     Message from routine setup:
     using ibrav=0 with symmetry is DISCOURAGED, use correct ibrav instead
     tcpu =   2831.9    self-consistency for image   2
     Message from routine setup:
     using ibrav=0 with symmetry is DISCOURAGED, use correct ibrav instead
     tcpu =   2853.0    self-consistency for image   3
     Message from routine setup:
     using ibrav=0 with symmetry is DISCOURAGED, use correct ibrav instead
     tcpu =   2869.9    self-consistency for image   4
     Message from routine setup:
     using ibrav=0 with symmetry is DISCOURAGED, use correct ibrav instead
     tcpu =   2886.9    self-consistency for image   5
     Message from routine setup:
     using ibrav=0 with symmetry is DISCOURAGED, use correct ibrav instead

     activation energy (->) =   1.721646 eV
     activation energy (<-) =   0.941386 eV

     image        energy (eV)        error (eV/A)        frozen

         1    -133597.0464397            0.296575            F
         2    -133596.3038611            1.262209            F
         3    -133595.3247939            0.827571            F
         4    -133596.1699329            0.676398            F
         5    -133596.2661797            0.290484            F

     path length          =  8.406 bohr
     inter-image distance =  2.101 bohr

     ------------------------------ iteration  16 ------------------------------

     tcpu =   2905.1    self-consistency for image   1
     Message from routine setup:
     using ibrav=0 with symmetry is DISCOURAGED, use correct ibrav instead
     tcpu =   2946.9    self-consistency for image   2
     Message from routine setup:
     using ibrav=0 with symmetry is DISCOURAGED, use correct ibrav instead
     tcpu =   2985.1    self-consistency for image   3
     Message from routine setup:
     using ibrav=0 with symmetry is DISCOURAGED, use correct ibrav instead
     tcpu =   3024.9    self-consistency for image   4
     Message from routine setup:
     using ibrav=0 with symmetry is DISCOURAGED, use correct ibrav instead
     tcpu =   3064.6    self-consistency for image   5
     Message from routine setup:
     using ibrav=0 with symmetry is DISCOURAGED, use correct ibrav instead

     activation energy (->) =   1.691750 eV
     activation energy (<-) =   0.916816 eV

     image        energy (eV)        error (eV/A)        frozen

         1    -133597.0544224            0.310643            F
         2    -133596.3300510            1.205033            F
         3    -133595.3626721            0.865591            F
         4    -133596.1951890            0.673719            F
         5    -133596.2794882            0.291000            F

     path length          =  8.408 bohr
     inter-image distance =  2.102 bohr

     ------------------------------ iteration  17 ------------------------------

     tcpu =   3100.7    self-consistency for image   1
     Message from routine setup:
     using ibrav=0 with symmetry is DISCOURAGED, use correct ibrav instead
     tcpu =   3177.2    self-consistency for image   2
     Message from routine setup:
     using ibrav=0 with symmetry is DISCOURAGED, use correct ibrav instead
     tcpu =   3252.3    self-consistency for image   3
     Message from routine setup:
     using ibrav=0 with symmetry is DISCOURAGED, use correct ibrav instead
     tcpu =   3328.5    self-consistency for image   4
     Message from routine setup:
     using ibrav=0 with symmetry is DISCOURAGED, use correct ibrav instead
     tcpu =   3381.2    self-consistency for image   5
     Message from routine setup:
     using ibrav=0 with symmetry is DISCOURAGED, use correct ibrav instead

     activation energy (->) =   1.347986 eV
     activation energy (<-) =   0.636704 eV

     image        energy (eV)        error (eV/A)        frozen

         1    -133597.1471443            0.310007            F
         2    -133596.4770887            1.060951            F
         3    -133595.7991586            0.968408            F
         4    -133596.4700398            0.616188            F
         5    -133596.4358631            0.288630            F

     path length          =  8.540 bohr
     inter-image distance =  2.135 bohr

     ------------------------------ iteration  18 ------------------------------

     tcpu =   3443.3    self-consistency for image   1
     Message from routine setup:
     using ibrav=0 with symmetry is DISCOURAGED, use correct ibrav instead
     tcpu =   3521.2    self-consistency for image   2
     Message from routine setup:
     using ibrav=0 with symmetry is DISCOURAGED, use correct ibrav instead
     tcpu =   3589.7    self-consistency for image   3
     Message from routine setup:
     using ibrav=0 with symmetry is DISCOURAGED, use correct ibrav instead
     tcpu =   3642.7    self-consistency for image   4
     Message from routine setup:
     using ibrav=0 with symmetry is DISCOURAGED, use correct ibrav instead
     tcpu =   3696.9    self-consistency for image   5
     Message from routine setup:
     using ibrav=0 with symmetry is DISCOURAGED, use correct ibrav instead

     activation energy (->) =   1.071368 eV
     activation energy (<-) =   0.422525 eV

     image        energy (eV)        error (eV/A)        frozen

         1    -133597.2291686            0.304338            F
         2    -133596.3021358            1.582485            F
         3    -133596.1578011            1.099613            F
         4    -133596.6825438            0.583262            F
         5    -133596.5803261            0.310061            F

     path length          =  8.863 bohr
     inter-image distance =  2.216 bohr

     ------------------------------ iteration  19 ------------------------------

     tcpu =   3760.2    self-consistency for image   1
     Message from routine setup:
     using ibrav=0 with symmetry is DISCOURAGED, use correct ibrav instead
     tcpu =   3800.1    self-consistency for image   2
     Message from routine setup:
     using ibrav=0 with symmetry is DISCOURAGED, use correct ibrav instead
     tcpu =   3838.6    self-consistency for image   3
     Message from routine setup:
     using ibrav=0 with symmetry is DISCOURAGED, use correct ibrav instead
     tcpu =   3881.5    self-consistency for image   4
     Message from routine setup:
     using ibrav=0 with symmetry is DISCOURAGED, use correct ibrav instead
     tcpu =   3924.9    self-consistency for image   5
     Message from routine setup:
     using ibrav=0 with symmetry is DISCOURAGED, use correct ibrav instead

     activation energy (->) =   1.045162 eV
     activation energy (<-) =   0.403614 eV

     image        energy (eV)        error (eV/A)        frozen

         1    -133597.2379987            0.304010            F
         2    -133596.2614975            1.767884            F
         3    -133596.1928366            0.960640            F
         4    -133596.7035911            0.614222            F
         5    -133596.5964504            0.314560            F

     path length          =  8.912 bohr
     inter-image distance =  2.228 bohr

     ------------------------------ iteration  20 ------------------------------

     tcpu =   3963.2    self-consistency for image   1
     Message from routine setup:
     using ibrav=0 with symmetry is DISCOURAGED, use correct ibrav instead
     tcpu =   3983.2    self-consistency for image   2
     Message from routine setup:
     using ibrav=0 with symmetry is DISCOURAGED, use correct ibrav instead
     tcpu =   4000.4    self-consistency for image   3
     Message from routine setup:
     using ibrav=0 with symmetry is DISCOURAGED, use correct ibrav instead
     tcpu =   4020.3    self-consistency for image   4
     Message from routine setup:
     using ibrav=0 with symmetry is DISCOURAGED, use correct ibrav instead
     tcpu =   4040.6    self-consistency for image   5
     Message from routine setup:
     using ibrav=0 with symmetry is DISCOURAGED, use correct ibrav instead

     activation energy (->) =   1.043920 eV
     activation energy (<-) =   0.402750 eV

     image        energy (eV)        error (eV/A)        frozen

         1    -133597.2383975            0.288060            F
         2    -133596.2604761            1.774064            F
         3    -133596.1944780            0.953934            F
         4    -133596.7046589            0.609417            F
         5    -133596.5972278            0.316299            F

     path length          =  8.914 bohr
     inter-image distance =  2.229 bohr

     ------------------------------ iteration  21 ------------------------------

     tcpu =   4057.9    self-consistency for image   1
     Message from routine setup:
     using ibrav=0 with symmetry is DISCOURAGED, use correct ibrav instead
     tcpu =   4076.2    self-consistency for image   2
     Message from routine setup:
     using ibrav=0 with symmetry is DISCOURAGED, use correct ibrav instead
     tcpu =   4093.5    self-consistency for image   3
     Message from routine setup:
     using ibrav=0 with symmetry is DISCOURAGED, use correct ibrav instead
     tcpu =   4111.4    self-consistency for image   4
     Message from routine setup:
     using ibrav=0 with symmetry is DISCOURAGED, use correct ibrav instead
     tcpu =   4129.0    self-consistency for image   5
     Message from routine setup:
     using ibrav=0 with symmetry is DISCOURAGED, use correct ibrav instead

     activation energy (->) =   1.043684 eV
     activation energy (<-) =   0.402576 eV

     image        energy (eV)        error (eV/A)        frozen

         1    -133597.2384994            0.301738            F
         2    -133596.2612825            1.769987            F
         3    -133596.1948157            0.954510            F
         4    -133596.7049509            0.614160            F
         5    -133596.5973921            0.317571            F

     path length          =  8.914 bohr
     inter-image distance =  2.229 bohr

     ------------------------------ iteration  22 ------------------------------

     tcpu =   4146.2    self-consistency for image   1
     Message from routine setup:
     using ibrav=0 with symmetry is DISCOURAGED, use correct ibrav instead
     tcpu =   4171.1    self-consistency for image   2
     Message from routine setup:
     using ibrav=0 with symmetry is DISCOURAGED, use correct ibrav instead
     tcpu =   4207.9    self-consistency for image   3
     Message from routine setup:
     using ibrav=0 with symmetry is DISCOURAGED, use correct ibrav instead
     tcpu =   4239.1    self-consistency for image   4
     Message from routine setup:
     using ibrav=0 with symmetry is DISCOURAGED, use correct ibrav instead
     tcpu =   4264.9    self-consistency for image   5
     Message from routine setup:
     using ibrav=0 with symmetry is DISCOURAGED, use correct ibrav instead

     activation energy (->) =   1.039493 eV
     activation energy (<-) =   0.399742 eV

     image        energy (eV)        error (eV/A)        frozen

         1    -133597.2398507            0.305248            F
         2    -133596.2780249            1.715899            F
         3    -133596.2003573            0.979469            F
         4    -133596.7100068            0.612310            F
         5    -133596.6000990            0.337896            F

     path length          =  8.915 bohr
     inter-image distance =  2.229 bohr

     ------------------------------ iteration  23 ------------------------------

     tcpu =   4291.4    self-consistency for image   1
     Message from routine setup:
     using ibrav=0 with symmetry is DISCOURAGED, use correct ibrav instead
     tcpu =   4370.1    self-consistency for image   2
     Message from routine setup:
     using ibrav=0 with symmetry is DISCOURAGED, use correct ibrav instead
     tcpu =   4441.4    self-consistency for image   3
     Message from routine setup:
     using ibrav=0 with symmetry is DISCOURAGED, use correct ibrav instead
     tcpu =   4520.5    self-consistency for image   4
     Message from routine setup:
     using ibrav=0 with symmetry is DISCOURAGED, use correct ibrav instead
     tcpu =   4581.2    self-consistency for image   5
     Message from routine setup:
     using ibrav=0 with symmetry is DISCOURAGED, use correct ibrav instead

     activation energy (->) =   0.870496 eV
     activation energy (<-) =   0.356511 eV

     image        energy (eV)        error (eV/A)        frozen

         1    -133597.3027146            0.277778            F
         2    -133596.7040486            0.723963            F
         3    -133596.4322184            1.039756            F
         4    -133596.9352212            0.485288            F
         5    -133596.7887297            2.726211            F

     path length          =  9.051 bohr
     inter-image distance =  2.263 bohr

     ------------------------------ iteration  24 ------------------------------

     tcpu =   4637.2    self-consistency for image   1
     Message from routine setup:
     using ibrav=0 with symmetry is DISCOURAGED, use correct ibrav instead
     tcpu =   4707.8    self-consistency for image   2
     Message from routine setup:
     using ibrav=0 with symmetry is DISCOURAGED, use correct ibrav instead
     tcpu =   4776.7    self-consistency for image   3
     Message from routine setup:
     using ibrav=0 with symmetry is DISCOURAGED, use correct ibrav instead
     tcpu =   4857.2    self-consistency for image   4
     Message from routine setup:
     using ibrav=0 with symmetry is DISCOURAGED, use correct ibrav instead
     tcpu =   4916.2    self-consistency for image   5
     Message from routine setup:
     using ibrav=0 with symmetry is DISCOURAGED, use correct ibrav instead

     activation energy (->) =   0.846973 eV
     activation energy (<-) =   0.417403 eV

     image        energy (eV)        error (eV/A)        frozen

         1    -133597.3602895            0.248132            F
         2    -133596.5133161            1.440625            F
         3    -133596.5897256            1.006216            F
         4    -133597.1170363            0.499974            F
         5    -133596.9307188            0.294483            F

     path length          =  9.415 bohr
     inter-image distance =  2.354 bohr

     ------------------------------ iteration  25 ------------------------------

     tcpu =   4969.4    self-consistency for image   1
     Message from routine setup:
     using ibrav=0 with symmetry is DISCOURAGED, use correct ibrav instead
     tcpu =   5002.2    self-consistency for image   2
     Message from routine setup:
     using ibrav=0 with symmetry is DISCOURAGED, use correct ibrav instead
     tcpu =   5041.9    self-consistency for image   3
     Message from routine setup:
     using ibrav=0 with symmetry is DISCOURAGED, use correct ibrav instead
     tcpu =   5079.6    self-consistency for image   4
     Message from routine setup:
     using ibrav=0 with symmetry is DISCOURAGED, use correct ibrav instead
     tcpu =   5113.8    self-consistency for image   5
     Message from routine setup:
     using ibrav=0 with symmetry is DISCOURAGED, use correct ibrav instead

     activation energy (->) =   0.823204 eV
     activation energy (<-) =   0.391515 eV

     image        energy (eV)        error (eV/A)        frozen

         1    -133597.3577146            0.248584            F
         2    -133596.5345102            1.428907            F
         3    -133596.5841198            0.998029            F
         4    -133597.1095353            0.456911            F
         5    -133596.9260251            0.294695            F

     path length          =  9.393 bohr
     inter-image distance =  2.348 bohr

     ------------------------------ iteration  26 ------------------------------

     tcpu =   5149.6    self-consistency for image   1
     Message from routine setup:
     using ibrav=0 with symmetry is DISCOURAGED, use correct ibrav instead
     tcpu =   5170.7    self-consistency for image   2
     Message from routine setup:
     using ibrav=0 with symmetry is DISCOURAGED, use correct ibrav instead
     tcpu =   5199.5    self-consistency for image   3
     Message from routine setup:
     using ibrav=0 with symmetry is DISCOURAGED, use correct ibrav instead
     tcpu =   5226.7    self-consistency for image   4
     Message from routine setup:
     using ibrav=0 with symmetry is DISCOURAGED, use correct ibrav instead
     tcpu =   5245.0    self-consistency for image   5
     Message from routine setup:
     using ibrav=0 with symmetry is DISCOURAGED, use correct ibrav instead

     activation energy (->) =   0.819096 eV
     activation energy (<-) =   0.387130 eV

     image        energy (eV)        error (eV/A)        frozen

         1    -133597.3573554            0.264215            F
         2    -133596.5382593            1.426052            F
         3    -133596.5834116            0.995616            F
         4    -133597.1084642            0.470015            F
         5    -133596.9253891            0.295590            F

     path length          =  9.389 bohr
     inter-image distance =  2.347 bohr

     ------------------------------ iteration  27 ------------------------------

     tcpu =   5267.5    self-consistency for image   1
     Message from routine setup:
     using ibrav=0 with symmetry is DISCOURAGED, use correct ibrav instead
     tcpu =   5283.5    self-consistency for image   2
     Message from routine setup:
     using ibrav=0 with symmetry is DISCOURAGED, use correct ibrav instead
     tcpu =   5299.3    self-consistency for image   3
     Message from routine setup:
     using ibrav=0 with symmetry is DISCOURAGED, use correct ibrav instead
     tcpu =   5320.8    self-consistency for image   4
     Message from routine setup:
     using ibrav=0 with symmetry is DISCOURAGED, use correct ibrav instead
     tcpu =   5335.4    self-consistency for image   5
     Message from routine setup:
     using ibrav=0 with symmetry is DISCOURAGED, use correct ibrav instead

     activation energy (->) =   0.818483 eV
     activation energy (<-) =   0.386534 eV

     image        energy (eV)        error (eV/A)        frozen

         1    -133597.3574145            0.248165            F
         2    -133596.5389318            1.420036            F
         3    -133596.5835684            0.995975            F
         4    -133597.1085648            0.451045            F
         5    -133596.9254661            0.294840            F

     path length          =  9.389 bohr
     inter-image distance =  2.347 bohr

     ------------------------------ iteration  28 ------------------------------

     tcpu =   5350.5    self-consistency for image   1
     Message from routine setup:
     using ibrav=0 with symmetry is DISCOURAGED, use correct ibrav instead
     tcpu =   5366.1    self-consistency for image   2
     Message from routine setup:
     using ibrav=0 with symmetry is DISCOURAGED, use correct ibrav instead
     tcpu =   5382.7    self-consistency for image   3
     Message from routine setup:
     using ibrav=0 with symmetry is DISCOURAGED, use correct ibrav instead
     tcpu =   5399.7    self-consistency for image   4
     Message from routine setup:
     using ibrav=0 with symmetry is DISCOURAGED, use correct ibrav instead
     tcpu =   5418.3    self-consistency for image   5
     Message from routine setup:
     using ibrav=0 with symmetry is DISCOURAGED, use correct ibrav instead

     activation energy (->) =   0.817895 eV
     activation energy (<-) =   0.385991 eV

     image        energy (eV)        error (eV/A)        frozen

         1    -133597.3574583            0.246769            F
         2    -133596.5395636            1.418141            F
         3    -133596.5837292            0.995228            F
         4    -133597.1086595            0.450819            F
         5    -133596.9255544            0.295299            F

     path length          =  9.389 bohr
     inter-image distance =  2.347 bohr

     ------------------------------ iteration  29 ------------------------------

     tcpu =   5438.9    self-consistency for image   1
     Message from routine setup:
     using ibrav=0 with symmetry is DISCOURAGED, use correct ibrav instead
     tcpu =   5455.3    self-consistency for image   2
     Message from routine setup:
     using ibrav=0 with symmetry is DISCOURAGED, use correct ibrav instead
     tcpu =   5475.3    self-consistency for image   3
     Message from routine setup:
     using ibrav=0 with symmetry is DISCOURAGED, use correct ibrav instead
     tcpu =   5492.3    self-consistency for image   4
     Message from routine setup:
     using ibrav=0 with symmetry is DISCOURAGED, use correct ibrav instead
     tcpu =   5508.7    self-consistency for image   5
     Message from routine setup:
     using ibrav=0 with symmetry is DISCOURAGED, use correct ibrav instead

     activation energy (->) =   0.816743 eV
     activation energy (<-) =   0.384937 eV

     image        energy (eV)        error (eV/A)        frozen

         1    -133597.3575433            0.244853            F
         2    -133596.5408006            1.410889            F
         3    -133596.5840415            0.994221            F
         4    -133597.1088372            0.450157            F
         5    -133596.9257375            0.292836            F

     path length          =  9.389 bohr
     inter-image distance =  2.347 bohr

     ------------------------------ iteration  30 ------------------------------

     tcpu =   5529.1    self-consistency for image   1
     Message from routine setup:
     using ibrav=0 with symmetry is DISCOURAGED, use correct ibrav instead
     tcpu =   5548.3    self-consistency for image   2
     Message from routine setup:
     using ibrav=0 with symmetry is DISCOURAGED, use correct ibrav instead
     tcpu =   5575.7    self-consistency for image   3
     Message from routine setup:
     using ibrav=0 with symmetry is DISCOURAGED, use correct ibrav instead
     tcpu =   5596.2    self-consistency for image   4
     Message from routine setup:
     using ibrav=0 with symmetry is DISCOURAGED, use correct ibrav instead
     tcpu =   5618.6    self-consistency for image   5
     Message from routine setup:
     using ibrav=0 with symmetry is DISCOURAGED, use correct ibrav instead

     activation energy (->) =   0.813336 eV
     activation energy (<-) =   0.381795 eV

     image        energy (eV)        error (eV/A)        frozen

         1    -133597.3577770            0.236422            F
         2    -133596.5444414            1.423395            F
         3    -133596.5849358            0.993814            F
         4    -133597.1093492            0.448464            F
         5    -133596.9262363            0.288451            F

     path length          =  9.389 bohr
     inter-image distance =  2.347 bohr

     ------------------------------ iteration  31 ------------------------------

     tcpu =   5636.1    self-consistency for image   1
     Message from routine setup:
     using ibrav=0 with symmetry is DISCOURAGED, use correct ibrav instead
     tcpu =   5667.7    self-consistency for image   2
     Message from routine setup:
     using ibrav=0 with symmetry is DISCOURAGED, use correct ibrav instead
     tcpu =   5701.3    self-consistency for image   3
     Message from routine setup:
     using ibrav=0 with symmetry is DISCOURAGED, use correct ibrav instead
     tcpu =   5732.0    self-consistency for image   4
     Message from routine setup:
     using ibrav=0 with symmetry is DISCOURAGED, use correct ibrav instead
     tcpu =   5763.3    self-consistency for image   5
     Message from routine setup:
     using ibrav=0 with symmetry is DISCOURAGED, use correct ibrav instead

     activation energy (->) =   0.800551 eV
     activation energy (<-) =   0.369978 eV

     image        energy (eV)        error (eV/A)        frozen

         1    -133597.3587536            0.248300            F
         2    -133596.5582025            1.414008            F
         3    -133596.5884393            0.974038            F
         4    -133597.1113451            0.438825            F
         5    -133596.9281808            0.295423            F

     path length          =  9.387 bohr
     inter-image distance =  2.347 bohr

     ------------------------------ iteration  32 ------------------------------

     tcpu =   5794.0    self-consistency for image   1
     Message from routine setup:
     using ibrav=0 with symmetry is DISCOURAGED, use correct ibrav instead
     tcpu =   5825.8    self-consistency for image   2
     Message from routine setup:
     using ibrav=0 with symmetry is DISCOURAGED, use correct ibrav instead
     tcpu =   5864.4    self-consistency for image   3
     Message from routine setup:
     using ibrav=0 with symmetry is DISCOURAGED, use correct ibrav instead
     tcpu =   5900.8    self-consistency for image   4
     Message from routine setup:
     using ibrav=0 with symmetry is DISCOURAGED, use correct ibrav instead
     tcpu =   5940.5    self-consistency for image   5
     Message from routine setup:
     using ibrav=0 with symmetry is DISCOURAGED, use correct ibrav instead

     activation energy (->) =   0.769781 eV
     activation energy (<-) =   0.341607 eV

     image        energy (eV)        error (eV/A)        frozen

         1    -133597.3611064            0.248121            F
         2    -133596.5913253            1.392204            F
         3    -133596.5968301            0.936850            F
         4    -133597.1161216            0.428172            F
         5    -133596.9329319            0.295958            F

     path length          =  9.383 bohr
     inter-image distance =  2.346 bohr

     ------------------------------ iteration  33 ------------------------------

     tcpu =   5977.9    self-consistency for image   1
     Message from routine setup:
     using ibrav=0 with symmetry is DISCOURAGED, use correct ibrav instead
     tcpu =   6015.5    self-consistency for image   2
     Message from routine setup:
     using ibrav=0 with symmetry is DISCOURAGED, use correct ibrav instead
     tcpu =   6057.0    self-consistency for image   3
     Message from routine setup:
     using ibrav=0 with symmetry is DISCOURAGED, use correct ibrav instead
     tcpu =   6094.2    self-consistency for image   4
     Message from routine setup:
     using ibrav=0 with symmetry is DISCOURAGED, use correct ibrav instead
     tcpu =   6134.7    self-consistency for image   5
     Message from routine setup:
     using ibrav=0 with symmetry is DISCOURAGED, use correct ibrav instead

     activation energy (->) =   0.757717 eV
     activation energy (<-) =   0.332215 eV

     image        energy (eV)        error (eV/A)        frozen

         1    -133597.3637733            0.246598            F
         2    -133596.6276391            1.366157            F
         3    -133596.6060563            0.974411            F
         4    -133597.1213850            0.427817            F
         5    -133596.9382714            0.296457            F

     path length          =  9.379 bohr
     inter-image distance =  2.345 bohr

     ------------------------------ iteration  34 ------------------------------

     tcpu =   6168.4    self-consistency for image   1
     Message from routine setup:
     using ibrav=0 with symmetry is DISCOURAGED, use correct ibrav instead
     tcpu =   6203.2    self-consistency for image   2
     Message from routine setup:
     using ibrav=0 with symmetry is DISCOURAGED, use correct ibrav instead
     tcpu =   6249.1    self-consistency for image   3
     Message from routine setup:
     using ibrav=0 with symmetry is DISCOURAGED, use correct ibrav instead
     tcpu =   6287.4    self-consistency for image   4
     Message from routine setup:
     using ibrav=0 with symmetry is DISCOURAGED, use correct ibrav instead
     tcpu =   6333.1    self-consistency for image   5
     Message from routine setup:
     using ibrav=0 with symmetry is DISCOURAGED, use correct ibrav instead

     activation energy (->) =   0.750711 eV
     activation energy (<-) =   0.328187 eV

     image        energy (eV)        error (eV/A)        frozen

         1    -133597.3667494            0.245979            F
         2    -133596.6667335            1.333862            F
         3    -133596.6160384            1.018367            F
         4    -133597.1270885            0.430620            F
         5    -133596.9442251            0.297071            F

     path length          =  9.376 bohr
     inter-image distance =  2.344 bohr

     ------------------------------ iteration  35 ------------------------------

     tcpu =   6368.9    self-consistency for image   1
     Message from routine setup:
     using ibrav=0 with symmetry is DISCOURAGED, use correct ibrav instead
     tcpu =   6400.9    self-consistency for image   2
     Message from routine setup:
     using ibrav=0 with symmetry is DISCOURAGED, use correct ibrav instead
     tcpu =   6433.6    self-consistency for image   3
     Message from routine setup:
     using ibrav=0 with symmetry is DISCOURAGED, use correct ibrav instead
     tcpu =   6460.0    self-consistency for image   4
     Message from routine setup:
     using ibrav=0 with symmetry is DISCOURAGED, use correct ibrav instead
     tcpu =   6487.0    self-consistency for image   5
     Message from routine setup:
     using ibrav=0 with symmetry is DISCOURAGED, use correct ibrav instead

     activation energy (->) =   0.748979 eV
     activation energy (<-) =   0.327200 eV

     image        energy (eV)        error (eV/A)        frozen

         1    -133597.3675048            0.246800            F
         2    -133596.6763203            1.326299            F
         3    -133596.6185260            1.025457            F
         4    -133597.1285087            0.432533            F
         5    -133596.9457258            0.297302            F

     path length          =  9.375 bohr
     inter-image distance =  2.344 bohr

     ------------------------------ iteration  36 ------------------------------

     tcpu =   6520.2    self-consistency for image   1
     Message from routine setup:
     using ibrav=0 with symmetry is DISCOURAGED, use correct ibrav instead
     tcpu =   6542.7    self-consistency for image   2
     Message from routine setup:
     using ibrav=0 with symmetry is DISCOURAGED, use correct ibrav instead
     tcpu =   6571.5    self-consistency for image   3
     Message from routine setup:
     using ibrav=0 with symmetry is DISCOURAGED, use correct ibrav instead
     tcpu =   6595.1    self-consistency for image   4
     Message from routine setup:
     using ibrav=0 with symmetry is DISCOURAGED, use correct ibrav instead
     tcpu =   6618.2    self-consistency for image   5
     Message from routine setup:
     using ibrav=0 with symmetry is DISCOURAGED, use correct ibrav instead

     activation energy (->) =   0.748241 eV
     activation energy (<-) =   0.326783 eV

     image        energy (eV)        error (eV/A)        frozen

         1    -133597.3677798            0.231231            F
         2    -133596.6801307            1.322975            F
         3    -133596.6195387            1.028356            F
         4    -133597.1290580            0.413352            F
         5    -133596.9463216            0.287832            F

     path length          =  9.375 bohr
     inter-image distance =  2.344 bohr

     ------------------------------ iteration  37 ------------------------------

     tcpu =   6637.4    self-consistency for image   1
     Message from routine setup:
     using ibrav=0 with symmetry is DISCOURAGED, use correct ibrav instead
     tcpu =   6661.0    self-consistency for image   2
     Message from routine setup:
     using ibrav=0 with symmetry is DISCOURAGED, use correct ibrav instead
     tcpu =   6688.3    self-consistency for image   3
     Message from routine setup:
     using ibrav=0 with symmetry is DISCOURAGED, use correct ibrav instead
     tcpu =   6709.4    self-consistency for image   4
     Message from routine setup:
     using ibrav=0 with symmetry is DISCOURAGED, use correct ibrav instead
     tcpu =   6734.8    self-consistency for image   5
     Message from routine setup:
     using ibrav=0 with symmetry is DISCOURAGED, use correct ibrav instead

     activation energy (->) =   0.747609 eV
     activation energy (<-) =   0.326418 eV

     image        energy (eV)        error (eV/A)        frozen

         1    -133597.3680405            0.236576            F
         2    -133596.6833752            1.319931            F
         3    -133596.6204312            1.036431            F
         4    -133597.1295874            0.431409            F
         5    -133596.9468496            0.286111            F

     path length          =  9.375 bohr
     inter-image distance =  2.344 bohr

     ------------------------------ iteration  38 ------------------------------

     tcpu =   6756.1    self-consistency for image   1
     Message from routine setup:
     using ibrav=0 with symmetry is DISCOURAGED, use correct ibrav instead
     tcpu =   6776.5    self-consistency for image   2
     Message from routine setup:
     using ibrav=0 with symmetry is DISCOURAGED, use correct ibrav instead
     tcpu =   6804.0    self-consistency for image   3
     Message from routine setup:
     using ibrav=0 with symmetry is DISCOURAGED, use correct ibrav instead
     tcpu =   6823.8    self-consistency for image   4
     Message from routine setup:
     using ibrav=0 with symmetry is DISCOURAGED, use correct ibrav instead
     tcpu =   6839.9    self-consistency for image   5
     Message from routine setup:
     using ibrav=0 with symmetry is DISCOURAGED, use correct ibrav instead

     activation energy (->) =   0.747047 eV
     activation energy (<-) =   0.326087 eV

     image        energy (eV)        error (eV/A)        frozen

         1    -133597.3682843            0.236004            F
         2    -133596.6862411            1.317243            F
         3    -133596.6212375            1.035205            F
         4    -133597.1300413            0.415303            F
         5    -133596.9473248            0.288882            F

     path length          =  9.375 bohr
     inter-image distance =  2.344 bohr

     ------------------------------ iteration  39 ------------------------------

     tcpu =   6859.0    self-consistency for image   1
     Message from routine setup:
     using ibrav=0 with symmetry is DISCOURAGED, use correct ibrav instead
     tcpu =   6891.6    self-consistency for image   2
     Message from routine setup:
     using ibrav=0 with symmetry is DISCOURAGED, use correct ibrav instead
     tcpu =   6926.3    self-consistency for image   3
     Message from routine setup:
     using ibrav=0 with symmetry is DISCOURAGED, use correct ibrav instead
     tcpu =   6954.3    self-consistency for image   4
     Message from routine setup:
     using ibrav=0 with symmetry is DISCOURAGED, use correct ibrav instead
     tcpu =   6987.9    self-consistency for image   5
     Message from routine setup:
     using ibrav=0 with symmetry is DISCOURAGED, use correct ibrav instead

     activation energy (->) =   0.744829 eV
     activation energy (<-) =   0.324742 eV

     image        energy (eV)        error (eV/A)        frozen

         1    -133597.3692342            0.246366            F
         2    -133596.6972449            1.307017            F
         3    -133596.6244054            1.035340            F
         4    -133597.1317977            0.433446            F
         5    -133596.9491475            0.297374            F

     path length          =  9.375 bohr
     inter-image distance =  2.344 bohr

     ------------------------------ iteration  40 ------------------------------

     tcpu =   7020.9    self-consistency for image   1
     Message from routine setup:
     using ibrav=0 with symmetry is DISCOURAGED, use correct ibrav instead
     tcpu =   7056.1    self-consistency for image   2
     Message from routine setup:
     using ibrav=0 with symmetry is DISCOURAGED, use correct ibrav instead
     tcpu =   7097.4    self-consistency for image   3
     Message from routine setup:
     using ibrav=0 with symmetry is DISCOURAGED, use correct ibrav instead
     tcpu =   7139.0    self-consistency for image   4
     Message from routine setup:
     using ibrav=0 with symmetry is DISCOURAGED, use correct ibrav instead
     tcpu =   7179.6    self-consistency for image   5
     Message from routine setup:
     using ibrav=0 with symmetry is DISCOURAGED, use correct ibrav instead

     activation energy (->) =   0.739213 eV
     activation energy (<-) =   0.321434 eV

     image        energy (eV)        error (eV/A)        frozen

         1    -133597.3716060            0.245076            F
         2    -133596.7247321            1.278020            F
         3    -133596.6323935            1.037423            F
         4    -133597.1362385            0.434672            F
         5    -133596.9538275            0.298251            F

     path length          =  9.375 bohr
     inter-image distance =  2.344 bohr

     ------------------------------ iteration  41 ------------------------------

     tcpu =   7216.0    self-consistency for image   1
     Message from routine setup:
     using ibrav=0 with symmetry is DISCOURAGED, use correct ibrav instead
     tcpu =   7254.1    self-consistency for image   2
     Message from routine setup:
     using ibrav=0 with symmetry is DISCOURAGED, use correct ibrav instead
     tcpu =   7296.0    self-consistency for image   3
     Message from routine setup:
     using ibrav=0 with symmetry is DISCOURAGED, use correct ibrav instead
     tcpu =   7332.4    self-consistency for image   4
     Message from routine setup:
     using ibrav=0 with symmetry is DISCOURAGED, use correct ibrav instead
     tcpu =   7372.3    self-consistency for image   5
     Message from routine setup:
     using ibrav=0 with symmetry is DISCOURAGED, use correct ibrav instead

     activation energy (->) =   0.733167 eV
     activation energy (<-) =   0.317932 eV

     image        energy (eV)        error (eV/A)        frozen

         1    -133597.3742315            0.245335            F
         2    -133596.7540089            1.243198            F
         3    -133596.6410643            1.027041            F
         4    -133597.1410405            0.435799            F
         5    -133596.9589963            0.297020            F

     path length          =  9.376 bohr
     inter-image distance =  2.344 bohr

     ------------------------------ iteration  42 ------------------------------

     tcpu =   7407.6    self-consistency for image   1
     Message from routine setup:
     using ibrav=0 with symmetry is DISCOURAGED, use correct ibrav instead
     tcpu =   7444.2    self-consistency for image   2
     Message from routine setup:
     using ibrav=0 with symmetry is DISCOURAGED, use correct ibrav instead
     tcpu =   7490.4    self-consistency for image   3
     Message from routine setup:
     using ibrav=0 with symmetry is DISCOURAGED, use correct ibrav instead
     tcpu =   7528.3    self-consistency for image   4
     Message from routine setup:
     using ibrav=0 with symmetry is DISCOURAGED, use correct ibrav instead
     tcpu =   7572.0    self-consistency for image   5
     Message from routine setup:
     using ibrav=0 with symmetry is DISCOURAGED, use correct ibrav instead

     activation energy (->) =   0.727023 eV
     activation energy (<-) =   0.314454 eV

     image        energy (eV)        error (eV/A)        frozen

         1    -133597.3770028            0.244562            F
         2    -133596.7835067            1.206289            F
         3    -133596.6499795            1.003501            F
         4    -133597.1459617            0.438382            F
         5    -133596.9644335            0.297408            F

     path length          =  9.378 bohr
     inter-image distance =  2.345 bohr

     ------------------------------ iteration  43 ------------------------------

     tcpu =   7609.9    self-consistency for image   1
     Message from routine setup:
     using ibrav=0 with symmetry is DISCOURAGED, use correct ibrav instead
     tcpu =   7636.9    self-consistency for image   2
     Message from routine setup:
     using ibrav=0 with symmetry is DISCOURAGED, use correct ibrav instead
     tcpu =   7670.7    self-consistency for image   3
     Message from routine setup:
     using ibrav=0 with symmetry is DISCOURAGED, use correct ibrav instead
     tcpu =   7698.4    self-consistency for image   4
     Message from routine setup:
     using ibrav=0 with symmetry is DISCOURAGED, use correct ibrav instead
     tcpu =   7727.0    self-consistency for image   5
     Message from routine setup:
     using ibrav=0 with symmetry is DISCOURAGED, use correct ibrav instead

     activation energy (->) =   0.725503 eV
     activation energy (<-) =   0.313577 eV

     image        energy (eV)        error (eV/A)        frozen

         1    -133597.3776979            0.245500            F
         2    -133596.7905365            1.196016            F
         3    -133596.6521948            0.996015            F
         4    -133597.1471708            0.439426            F
         5    -133596.9657720            0.296406            F

     path length          =  9.379 bohr
     inter-image distance =  2.345 bohr

     ------------------------------ iteration  44 ------------------------------

     tcpu =   7755.6    self-consistency for image   1
     Message from routine setup:
     using ibrav=0 with symmetry is DISCOURAGED, use correct ibrav instead
     tcpu =   7774.9    self-consistency for image   2
     Message from routine setup:
     using ibrav=0 with symmetry is DISCOURAGED, use correct ibrav instead
     tcpu =   7802.8    self-consistency for image   3
     Message from routine setup:
     using ibrav=0 with symmetry is DISCOURAGED, use correct ibrav instead
     tcpu =   7824.8    self-consistency for image   4
     Message from routine setup:
     using ibrav=0 with symmetry is DISCOURAGED, use correct ibrav instead
     tcpu =   7847.5    self-consistency for image   5
     Message from routine setup:
     using ibrav=0 with symmetry is DISCOURAGED, use correct ibrav instead

     activation energy (->) =   0.724901 eV
     activation energy (<-) =   0.313238 eV

     image        energy (eV)        error (eV/A)        frozen

         1    -133597.3779666            0.232067            F
         2    -133596.7931924            1.192081            F
         3    -133596.6530651            0.996693            F
         4    -133597.1476254            0.421425            F
         5    -133596.9663027            0.293152            F

     path length          =  9.380 bohr
     inter-image distance =  2.345 bohr

     ------------------------------ iteration  45 ------------------------------

     tcpu =   7863.9    self-consistency for image   1
     Message from routine setup:
     using ibrav=0 with symmetry is DISCOURAGED, use correct ibrav instead
     tcpu =   7883.0    self-consistency for image   2
     Message from routine setup:
     using ibrav=0 with symmetry is DISCOURAGED, use correct ibrav instead
     tcpu =   7910.4    self-consistency for image   3
     Message from routine setup:
     using ibrav=0 with symmetry is DISCOURAGED, use correct ibrav instead
     tcpu =   7932.8    self-consistency for image   4
     Message from routine setup:
     using ibrav=0 with symmetry is DISCOURAGED, use correct ibrav instead
     tcpu =   7954.6    self-consistency for image   5
     Message from routine setup:
     using ibrav=0 with symmetry is DISCOURAGED, use correct ibrav instead

     activation energy (->) =   0.724303 eV
     activation energy (<-) =   0.312886 eV

     image        energy (eV)        error (eV/A)        frozen

         1    -133597.3781926            0.233094            F
         2    -133596.7954612            1.188559            F
         3    -133596.6538898            0.992928            F
         4    -133597.1480420            0.420376            F
         5    -133596.9667757            0.290998            F

     path length          =  9.380 bohr
     inter-image distance =  2.345 bohr

     ------------------------------ iteration  46 ------------------------------

     tcpu =   7975.1    self-consistency for image   1
     Message from routine setup:
     using ibrav=0 with symmetry is DISCOURAGED, use correct ibrav instead
     tcpu =   7997.0    self-consistency for image   2
     Message from routine setup:
     using ibrav=0 with symmetry is DISCOURAGED, use correct ibrav instead
     tcpu =   8024.2    self-consistency for image   3
     Message from routine setup:
     using ibrav=0 with symmetry is DISCOURAGED, use correct ibrav instead
     tcpu =   8044.6    self-consistency for image   4
     Message from routine setup:
     using ibrav=0 with symmetry is DISCOURAGED, use correct ibrav instead
     tcpu =   8065.4    self-consistency for image   5
     Message from routine setup:
     using ibrav=0 with symmetry is DISCOURAGED, use correct ibrav instead

     activation energy (->) =   0.723700 eV
     activation energy (<-) =   0.312517 eV

     image        energy (eV)        error (eV/A)        frozen

         1    -133597.3784166            0.234950            F
         2    -133596.7975679            1.185168            F
         3    -133596.6547169            0.989298            F
         4    -133597.1484417            0.424241            F
         5    -133596.9672336            0.291737            F

     path length          =  9.380 bohr
     inter-image distance =  2.345 bohr

     ------------------------------ iteration  47 ------------------------------

     tcpu =   8085.8    self-consistency for image   1
     Message from routine setup:
     using ibrav=0 with symmetry is DISCOURAGED, use correct ibrav instead
     tcpu =   8119.7    self-consistency for image   2
     Message from routine setup:
     using ibrav=0 with symmetry is DISCOURAGED, use correct ibrav instead
     tcpu =   8154.3    self-consistency for image   3
     Message from routine setup:
     using ibrav=0 with symmetry is DISCOURAGED, use correct ibrav instead
     tcpu =   8182.2    self-consistency for image   4
     Message from routine setup:
     using ibrav=0 with symmetry is DISCOURAGED, use correct ibrav instead
     tcpu =   8211.1    self-consistency for image   5
     Message from routine setup:
     using ibrav=0 with symmetry is DISCOURAGED, use correct ibrav instead

     activation energy (->) =   0.721266 eV
     activation energy (<-) =   0.310985 eV

     image        energy (eV)        error (eV/A)        frozen

         1    -133597.3793987            0.244041            F
         2    -133596.8060978            1.171891            F
         3    -133596.6581330            0.974282            F
         4    -133597.1500649            0.440044            F
         5    -133596.9691180            0.297551            F

     path length          =  9.382 bohr
     inter-image distance =  2.346 bohr

     ------------------------------ iteration  48 ------------------------------

     tcpu =   8246.2    self-consistency for image   1
     Message from routine setup:
     using ibrav=0 with symmetry is DISCOURAGED, use correct ibrav instead
     tcpu =   8281.6    self-consistency for image   2
     Message from routine setup:
     using ibrav=0 with symmetry is DISCOURAGED, use correct ibrav instead
     tcpu =   8322.5    self-consistency for image   3
     Message from routine setup:
     using ibrav=0 with symmetry is DISCOURAGED, use correct ibrav instead
     tcpu =   8360.1    self-consistency for image   4
     Message from routine setup:
     using ibrav=0 with symmetry is DISCOURAGED, use correct ibrav instead
     tcpu =   8397.5    self-consistency for image   5
     Message from routine setup:
     using ibrav=0 with symmetry is DISCOURAGED, use correct ibrav instead

     activation energy (->) =   0.714823 eV
     activation energy (<-) =   0.306988 eV

     image        energy (eV)        error (eV/A)        frozen

         1    -133597.3819548            0.242898            F
         2    -133596.8280936            1.132810            F
         3    -133596.6671316            0.938643            F
         4    -133597.1543381            0.440524            F
         5    -133596.9741194            0.299075            F

     path length          =  9.387 bohr
     inter-image distance =  2.347 bohr

     ------------------------------ iteration  49 ------------------------------

     tcpu =   8434.7    self-consistency for image   1
     Message from routine setup:
     using ibrav=0 with symmetry is DISCOURAGED, use correct ibrav instead
     tcpu =   8473.3    self-consistency for image   2
     Message from routine setup:
     using ibrav=0 with symmetry is DISCOURAGED, use correct ibrav instead
     tcpu =   8517.4    self-consistency for image   3
     Message from routine setup:
     using ibrav=0 with symmetry is DISCOURAGED, use correct ibrav instead
     tcpu =   8554.2    self-consistency for image   4
     Message from routine setup:
     using ibrav=0 with symmetry is DISCOURAGED, use correct ibrav instead
     tcpu =   8595.8    self-consistency for image   5
     Message from routine setup:
     using ibrav=0 with symmetry is DISCOURAGED, use correct ibrav instead

     activation energy (->) =   0.707990 eV
     activation energy (<-) =   0.302814 eV

     image        energy (eV)        error (eV/A)        frozen

         1    -133597.3847428            0.242219            F
         2    -133596.8508158            1.087325            F
         3    -133596.6767532            0.894545            F
         4    -133597.1588901            0.440804            F
         5    -133596.9795668            0.298883            F

     path length          =  9.394 bohr
     inter-image distance =  2.348 bohr

     ------------------------------ iteration  50 ------------------------------

     tcpu =   8633.2    self-consistency for image   1
     Message from routine setup:
     using ibrav=0 with symmetry is DISCOURAGED, use correct ibrav instead
     tcpu =   8670.0    self-consistency for image   2
     Message from routine setup:
     using ibrav=0 with symmetry is DISCOURAGED, use correct ibrav instead
     tcpu =   8713.9    self-consistency for image   3
     Message from routine setup:
     using ibrav=0 with symmetry is DISCOURAGED, use correct ibrav instead
     tcpu =   8751.6    self-consistency for image   4
     Message from routine setup:
     using ibrav=0 with symmetry is DISCOURAGED, use correct ibrav instead
     tcpu =   8792.6    self-consistency for image   5
     Message from routine setup:
     using ibrav=0 with symmetry is DISCOURAGED, use correct ibrav instead

     activation energy (->) =   0.701415 eV
     activation energy (<-) =   0.298847 eV

     image        energy (eV)        error (eV/A)        frozen

         1    -133597.3874883            0.241506            F
         2    -133596.8719925            1.040296            F
         3    -133596.6860734            0.847230            F
         4    -133597.1632595            0.440475            F
         5    -133596.9849202            0.298430            F

     path length          =  9.401 bohr
     inter-image distance =  2.350 bohr

     ------------------------------ iteration  51 ------------------------------

     tcpu =   8831.1    self-consistency for image   1
     Message from routine setup:
     using ibrav=0 with symmetry is DISCOURAGED, use correct ibrav instead
     tcpu =   8862.3    self-consistency for image   2
     Message from routine setup:
     using ibrav=0 with symmetry is DISCOURAGED, use correct ibrav instead
     tcpu =   8897.1    self-consistency for image   3
     Message from routine setup:
     using ibrav=0 with symmetry is DISCOURAGED, use correct ibrav instead
     tcpu =   8921.6    self-consistency for image   4
     Message from routine setup:
     using ibrav=0 with symmetry is DISCOURAGED, use correct ibrav instead
     tcpu =   8948.9    self-consistency for image   5
     Message from routine setup:
     using ibrav=0 with symmetry is DISCOURAGED, use correct ibrav instead

     activation energy (->) =   0.699881 eV
     activation energy (<-) =   0.297913 eV

     image        energy (eV)        error (eV/A)        frozen

         1    -133597.3881356            0.242421            F
         2    -133596.8766998            1.028847            F
         3    -133596.6882550            0.836233            F
         4    -133597.1642789            0.440973            F
         5    -133596.9861684            0.297448            F

     path length          =  9.403 bohr
     inter-image distance =  2.351 bohr

     ------------------------------ iteration  52 ------------------------------

     tcpu =   8974.5    self-consistency for image   1
     Message from routine setup:
     using ibrav=0 with symmetry is DISCOURAGED, use correct ibrav instead
     tcpu =   8993.4    self-consistency for image   2
     Message from routine setup:
     using ibrav=0 with symmetry is DISCOURAGED, use correct ibrav instead
     tcpu =   9021.0    self-consistency for image   3
     Message from routine setup:
     using ibrav=0 with symmetry is DISCOURAGED, use correct ibrav instead
     tcpu =   9038.8    self-consistency for image   4
     Message from routine setup:
     using ibrav=0 with symmetry is DISCOURAGED, use correct ibrav instead
     tcpu =   9059.6    self-consistency for image   5
     Message from routine setup:
     using ibrav=0 with symmetry is DISCOURAGED, use correct ibrav instead

     activation energy (->) =   0.699264 eV
     activation energy (<-) =   0.297534 eV

     image        energy (eV)        error (eV/A)        frozen

         1    -133597.3883763            0.230040            F
         2    -133596.8783849            1.024891            F
         3    -133596.6891126            0.834564            F
         4    -133597.1646541            0.424704            F
         5    -133596.9866465            0.293874            F

     path length          =  9.403 bohr
     inter-image distance =  2.351 bohr

     ------------------------------ iteration  53 ------------------------------

     tcpu =   9076.4    self-consistency for image   1
     Message from routine setup:
     using ibrav=0 with symmetry is DISCOURAGED, use correct ibrav instead
     tcpu =   9095.7    self-consistency for image   2
     Message from routine setup:
     using ibrav=0 with symmetry is DISCOURAGED, use correct ibrav instead
     tcpu =   9122.1    self-consistency for image   3
     Message from routine setup:
     using ibrav=0 with symmetry is DISCOURAGED, use correct ibrav instead
     tcpu =   9139.0    self-consistency for image   4
     Message from routine setup:
     using ibrav=0 with symmetry is DISCOURAGED, use correct ibrav instead
     tcpu =   9159.8    self-consistency for image   5
     Message from routine setup:
     using ibrav=0 with symmetry is DISCOURAGED, use correct ibrav instead

     activation energy (->) =   0.698670 eV
     activation energy (<-) =   0.297161 eV

     image        energy (eV)        error (eV/A)        frozen

         1    -133597.3885909            0.231381            F
         2    -133596.8798307            1.021140            F
         3    -133596.6899210            0.829954            F
         4    -133597.1649918            0.423883            F
         5    -133596.9870816            0.291849            F

     path length          =  9.404 bohr
     inter-image distance =  2.351 bohr

     ------------------------------ iteration  54 ------------------------------

     tcpu =   9179.6    self-consistency for image   1
     Message from routine setup:
     using ibrav=0 with symmetry is DISCOURAGED, use correct ibrav instead
     tcpu =   9200.2    self-consistency for image   2
     Message from routine setup:
     using ibrav=0 with symmetry is DISCOURAGED, use correct ibrav instead
     tcpu =   9224.0    self-consistency for image   3
     Message from routine setup:
     using ibrav=0 with symmetry is DISCOURAGED, use correct ibrav instead
     tcpu =   9240.3    self-consistency for image   4
     Message from routine setup:
     using ibrav=0 with symmetry is DISCOURAGED, use correct ibrav instead
     tcpu =   9260.9    self-consistency for image   5
     Message from routine setup:
     using ibrav=0 with symmetry is DISCOURAGED, use correct ibrav instead

     activation energy (->) =   0.698017 eV
     activation energy (<-) =   0.296744 eV

     image        energy (eV)        error (eV/A)        frozen

[...]

     activation energy (->) =   0.333153 eV
     activation energy (<-) =   0.021932 eV

     image        energy (eV)        error (eV/A)        frozen

         1    -133597.8718786            0.138112            F
         2    -133597.5656747            0.460490            F
         3    -133597.5387252            0.261089            F
         4    -133597.9990762            0.431294            F
         5    -133597.5606573            0.189630            F

     path length          = 12.026 bohr
     inter-image distance =  3.006 bohr

     ------------------------------ iteration 249 ------------------------------

     tcpu =  35477.3    self-consistency for image   1
     Message from routine setup:
     using ibrav=0 with symmetry is DISCOURAGED, use correct ibrav instead
     tcpu =  35512.9    self-consistency for image   2
     Message from routine setup:
     using ibrav=0 with symmetry is DISCOURAGED, use correct ibrav instead
     tcpu =  35537.5    self-consistency for image   3
     Message from routine setup:
     using ibrav=0 with symmetry is DISCOURAGED, use correct ibrav instead
     tcpu =  35562.2    self-consistency for image   4
     Message from routine setup:
     using ibrav=0 with symmetry is DISCOURAGED, use correct ibrav instead
     tcpu =  35583.3    self-consistency for image   5
     Message from routine setup:
     using ibrav=0 with symmetry is DISCOURAGED, use correct ibrav instead

     activation energy (->) =   0.333354 eV
     activation energy (<-) =   0.021600 eV

     image        energy (eV)        error (eV/A)        frozen

         1    -133597.8728167            0.145465            F
         2    -133597.5676151            0.460999            F
         3    -133597.5394622            0.264634            F
         4    -133598.0012392            0.420943            F
         5    -133597.5610620            0.155087            F

     path length          = 12.032 bohr
     inter-image distance =  3.008 bohr

     ------------------------------ iteration 250 ------------------------------

     tcpu =  35603.5    self-consistency for image   1
     Message from routine setup:
     using ibrav=0 with symmetry is DISCOURAGED, use correct ibrav instead
     tcpu =  35640.9    self-consistency for image   2
     Message from routine setup:
     using ibrav=0 with symmetry is DISCOURAGED, use correct ibrav instead
     tcpu =  35670.5    self-consistency for image   3
     Message from routine setup:
     using ibrav=0 with symmetry is DISCOURAGED, use correct ibrav instead
     tcpu =  35701.0    self-consistency for image   4
     Message from routine setup:
     using ibrav=0 with symmetry is DISCOURAGED, use correct ibrav instead
     tcpu =  35732.9    self-consistency for image   5
     Message from routine setup:
     using ibrav=0 with symmetry is DISCOURAGED, use correct ibrav instead

     activation energy (->) =   0.333731 eV
     activation energy (<-) =   0.021013 eV

     image        energy (eV)        error (eV/A)        frozen

         1    -133597.8746488            0.145135            F
         2    -133597.5714267            0.465279            F
         3    -133597.5409179            0.265624            F
         4    -133598.0055326            0.430969            F
         5    -133597.5619306            0.191634            F

     path length          = 12.044 bohr
     inter-image distance =  3.011 bohr

     ------------------------------ iteration 251 ------------------------------

     tcpu =  35759.8    self-consistency for image   1
     Message from routine setup:
     using ibrav=0 with symmetry is DISCOURAGED, use correct ibrav instead
     tcpu =  35794.1    self-consistency for image   2
     Message from routine setup:
     using ibrav=0 with symmetry is DISCOURAGED, use correct ibrav instead
     tcpu =  35819.1    self-consistency for image   3
     Message from routine setup:
     using ibrav=0 with symmetry is DISCOURAGED, use correct ibrav instead
     tcpu =  35843.7    self-consistency for image   4
     Message from routine setup:
     using ibrav=0 with symmetry is DISCOURAGED, use correct ibrav instead
     tcpu =  35865.2    self-consistency for image   5
     Message from routine setup:
     using ibrav=0 with symmetry is DISCOURAGED, use correct ibrav instead

     activation energy (->) =   0.333975 eV
     activation energy (<-) =   0.020596 eV

     image        energy (eV)        error (eV/A)        frozen

         1    -133597.8758136            0.145849            F
         2    -133597.5738645            0.467231            F
         3    -133597.5418383            0.267955            F
         4    -133598.0082066            0.416136            F
         5    -133597.5624348            0.143918            F

     path length          = 12.052 bohr
     inter-image distance =  3.013 bohr

     ------------------------------ iteration 252 ------------------------------

     tcpu =  35885.4    self-consistency for image   1
     Message from routine setup:
     using ibrav=0 with symmetry is DISCOURAGED, use correct ibrav instead
     tcpu =  35925.5    self-consistency for image   2
     Message from routine setup:
     using ibrav=0 with symmetry is DISCOURAGED, use correct ibrav instead
     tcpu =  35955.1    self-consistency for image   3
     Message from routine setup:
     using ibrav=0 with symmetry is DISCOURAGED, use correct ibrav instead
     tcpu =  35982.5    self-consistency for image   4
     Message from routine setup:
     using ibrav=0 with symmetry is DISCOURAGED, use correct ibrav instead
     tcpu =  36015.4    self-consistency for image   5
     Message from routine setup:
     using ibrav=0 with symmetry is DISCOURAGED, use correct ibrav instead

     activation energy (->) =   0.334527 eV
     activation energy (<-) =   0.019785 eV

     image        energy (eV)        error (eV/A)        frozen

         1    -133597.8783916            0.146300            F
         2    -133597.5792077            0.471760            F
         3    -133597.5438647            0.268960            F
         4    -133598.0141813            0.426885            F
         5    -133597.5636497            0.191288            F

     path length          = 12.070 bohr
     inter-image distance =  3.017 bohr

     ------------------------------ iteration 253 ------------------------------

     tcpu =  36047.7    self-consistency for image   1
     Message from routine setup:
     using ibrav=0 with symmetry is DISCOURAGED, use correct ibrav instead
     tcpu =  36074.0    self-consistency for image   2
     Message from routine setup:
     using ibrav=0 with symmetry is DISCOURAGED, use correct ibrav instead
     tcpu =  36090.9    self-consistency for image   3
     Message from routine setup:
     using ibrav=0 with symmetry is DISCOURAGED, use correct ibrav instead
     tcpu =  36109.6    self-consistency for image   4
     Message from routine setup:
     using ibrav=0 with symmetry is DISCOURAGED, use correct ibrav instead
     tcpu =  36129.5    self-consistency for image   5
     Message from routine setup:
     using ibrav=0 with symmetry is DISCOURAGED, use correct ibrav instead

     activation energy (->) =   0.334615 eV
     activation energy (<-) =   0.019606 eV

     image        energy (eV)        error (eV/A)        frozen

         1    -133597.8788813            0.151138            F
         2    -133597.5802479            0.475134            F
         3    -133597.5442666            0.265292            F
         4    -133598.0153244            0.421107            F
         5    -133597.5638723            0.161447            F

     path length          = 12.073 bohr
     inter-image distance =  3.018 bohr

     ------------------------------ iteration 254 ------------------------------

     tcpu =  36147.8    self-consistency for image   1
     Message from routine setup:
     using ibrav=0 with symmetry is DISCOURAGED, use correct ibrav instead
     tcpu =  36169.5    self-consistency for image   2
     Message from routine setup:
     using ibrav=0 with symmetry is DISCOURAGED, use correct ibrav instead
     tcpu =  36185.7    self-consistency for image   3
     Message from routine setup:
     using ibrav=0 with symmetry is DISCOURAGED, use correct ibrav instead
     tcpu =  36202.0    self-consistency for image   4
     Message from routine setup:
     using ibrav=0 with symmetry is DISCOURAGED, use correct ibrav instead
     tcpu =  36218.9    self-consistency for image   5
     Message from routine setup:
     using ibrav=0 with symmetry is DISCOURAGED, use correct ibrav instead

     activation energy (->) =   0.334664 eV
     activation energy (<-) =   0.019525 eV

     image        energy (eV)        error (eV/A)        frozen

         1    -133597.8791256            0.146026            F
         2    -133597.5807567            0.474445            F
         3    -133597.5444613            0.267538            F
         4    -133598.0158801            0.424141            F
         5    -133597.5639863            0.179353            F

     path length          = 12.075 bohr
     inter-image distance =  3.019 bohr

     ------------------------------ iteration 255 ------------------------------

     tcpu =  36236.9    self-consistency for image   1
     Message from routine setup:
     using ibrav=0 with symmetry is DISCOURAGED, use correct ibrav instead
     tcpu =  36260.9    self-consistency for image   2
     Message from routine setup:
     using ibrav=0 with symmetry is DISCOURAGED, use correct ibrav instead
     tcpu =  36281.5    self-consistency for image   3
     Message from routine setup:
     using ibrav=0 with symmetry is DISCOURAGED, use correct ibrav instead
     tcpu =  36297.4    self-consistency for image   4
     Message from routine setup:
     using ibrav=0 with symmetry is DISCOURAGED, use correct ibrav instead
     tcpu =  36317.7    self-consistency for image   5
     Message from routine setup:
     using ibrav=0 with symmetry is DISCOURAGED, use correct ibrav instead

     activation energy (->) =   0.334741 eV
     activation energy (<-) =   0.019389 eV

     image        energy (eV)        error (eV/A)        frozen

         1    -133597.8795169            0.148718            F
         2    -133597.5815933            0.475635            F
         3    -133597.5447758            0.266445            F
         4    -133598.0167866            0.421868            F
         5    -133597.5641646            0.169015            F

     path length          = 12.078 bohr
     inter-image distance =  3.019 bohr

     ------------------------------ iteration 256 ------------------------------

     tcpu =  36336.5    self-consistency for image   1
     Message from routine setup:
     using ibrav=0 with symmetry is DISCOURAGED, use correct ibrav instead
     tcpu =  36354.9    self-consistency for image   2
     Message from routine setup:
     using ibrav=0 with symmetry is DISCOURAGED, use correct ibrav instead
     tcpu =  36371.5    self-consistency for image   3
     Message from routine setup:
     using ibrav=0 with symmetry is DISCOURAGED, use correct ibrav instead
     tcpu =  36388.2    self-consistency for image   4
     Message from routine setup:
     using ibrav=0 with symmetry is DISCOURAGED, use correct ibrav instead
     tcpu =  36405.0    self-consistency for image   5
     Message from routine setup:
     using ibrav=0 with symmetry is DISCOURAGED, use correct ibrav instead

     activation energy (->) =   0.334769 eV
     activation energy (<-) =   0.019327 eV

     image        energy (eV)        error (eV/A)        frozen

         1    -133597.8796908            0.139003            F
         2    -133597.5819782            0.474868            F
         3    -133597.5449218            0.268529            F
         4    -133598.0171967            0.424209            F
         5    -133597.5642488            0.187803            F

     path length          = 12.079 bohr
     inter-image distance =  3.020 bohr

     ------------------------------ iteration 257 ------------------------------

     tcpu =  36421.3    self-consistency for image   1
     Message from routine setup:
     using ibrav=0 with symmetry is DISCOURAGED, use correct ibrav instead
     tcpu =  36456.2    self-consistency for image   2
     Message from routine setup:
     using ibrav=0 with symmetry is DISCOURAGED, use correct ibrav instead
     tcpu =  36480.9    self-consistency for image   3
     Message from routine setup:
     using ibrav=0 with symmetry is DISCOURAGED, use correct ibrav instead
     tcpu =  36505.0    self-consistency for image   4
     Message from routine setup:
     using ibrav=0 with symmetry is DISCOURAGED, use correct ibrav instead
     tcpu =  36526.1    self-consistency for image   5
     Message from routine setup:
     using ibrav=0 with symmetry is DISCOURAGED, use correct ibrav instead

     activation energy (->) =   0.334957 eV
     activation energy (<-) =   0.018949 eV

     image        energy (eV)        error (eV/A)        frozen

         1    -133597.8806874            0.146241            F
         2    -133597.5841233            0.474298            F
         3    -133597.5457300            0.272846            F
         4    -133598.0194524            0.412801            F
         5    -133597.5646786            0.134281            F

     path length          = 12.086 bohr
     inter-image distance =  3.021 bohr

     ------------------------------ iteration 258 ------------------------------

     tcpu =  36547.0    self-consistency for image   1
     Message from routine setup:
     using ibrav=0 with symmetry is DISCOURAGED, use correct ibrav instead
     tcpu =  36586.1    self-consistency for image   2
     Message from routine setup:
     using ibrav=0 with symmetry is DISCOURAGED, use correct ibrav instead
     tcpu =  36617.7    self-consistency for image   3
     Message from routine setup:
     using ibrav=0 with symmetry is DISCOURAGED, use correct ibrav instead
     tcpu =  36645.1    self-consistency for image   4
     Message from routine setup:
     using ibrav=0 with symmetry is DISCOURAGED, use correct ibrav instead
     tcpu =  36675.4    self-consistency for image   5
     Message from routine setup:
     using ibrav=0 with symmetry is DISCOURAGED, use correct ibrav instead

     activation energy (->) =   0.335310 eV
     activation energy (<-) =   0.018301 eV

     image        energy (eV)        error (eV/A)        frozen

         1    -133597.8825869            0.146727            F
         2    -133597.5882488            0.476895            F
         3    -133597.5472773            0.273175            F
         4    -133598.0238366            0.424653            F
         5    -133597.5655778            0.188560            F

     path length          = 12.099 bohr
     inter-image distance =  3.025 bohr

     ------------------------------ iteration 259 ------------------------------

     tcpu =  36701.9    self-consistency for image   1
     Message from routine setup:
     using ibrav=0 with symmetry is DISCOURAGED, use correct ibrav instead
     tcpu =  36736.8    self-consistency for image   2
     Message from routine setup:
     using ibrav=0 with symmetry is DISCOURAGED, use correct ibrav instead
     tcpu =  36760.8    self-consistency for image   3
     Message from routine setup:
     using ibrav=0 with symmetry is DISCOURAGED, use correct ibrav instead
     tcpu =  36785.3    self-consistency for image   4
     Message from routine setup:
     using ibrav=0 with symmetry is DISCOURAGED, use correct ibrav instead
     tcpu =  36806.4    self-consistency for image   5
     Message from routine setup:
     using ibrav=0 with symmetry is DISCOURAGED, use correct ibrav instead

     activation energy (->) =   0.335531 eV
     activation energy (<-) =   0.017812 eV

     image        energy (eV)        error (eV/A)        frozen

         1    -133597.8838280            0.146281            F
         2    -133597.5909486            0.477317            F
         3    -133597.5482969            0.276660            F
         4    -133598.0266572            0.407206            F
         5    -133597.5661085            0.118999            F

     path length          = 12.108 bohr
     inter-image distance =  3.027 bohr

     ------------------------------ iteration 260 ------------------------------

     tcpu =  36826.7    self-consistency for image   1
     Message from routine setup:
     using ibrav=0 with symmetry is DISCOURAGED, use correct ibrav instead
     tcpu =  36863.8    self-consistency for image   2
     Message from routine setup:
     using ibrav=0 with symmetry is DISCOURAGED, use correct ibrav instead
     tcpu =  36893.8    self-consistency for image   3
     Message from routine setup:
     using ibrav=0 with symmetry is DISCOURAGED, use correct ibrav instead
     tcpu =  36922.1    self-consistency for image   4
     Message from routine setup:
     using ibrav=0 with symmetry is DISCOURAGED, use correct ibrav instead
     tcpu =  36956.2    self-consistency for image   5
     Message from routine setup:
     using ibrav=0 with symmetry is DISCOURAGED, use correct ibrav instead

     activation energy (->) =   0.335977 eV
     activation energy (<-) =   0.016997 eV

     image        energy (eV)        error (eV/A)        frozen

         1    -133597.8862114            0.146323            F
         2    -133597.5961215            0.479928            F
         3    -133597.5502347            0.277365            F
         4    -133598.0321170            0.419590            F
         5    -133597.5672313            0.188691            F

     path length          = 12.125 bohr
     inter-image distance =  3.031 bohr

     ------------------------------ iteration 261 ------------------------------

     tcpu =  36987.4    self-consistency for image   1
     Message from routine setup:
     using ibrav=0 with symmetry is DISCOURAGED, use correct ibrav instead
     tcpu =  37010.8    self-consistency for image   2
     Message from routine setup:
     using ibrav=0 with symmetry is DISCOURAGED, use correct ibrav instead
     tcpu =  37039.3    self-consistency for image   3
     Message from routine setup:
     using ibrav=0 with symmetry is DISCOURAGED, use correct ibrav instead
     tcpu =  37055.6    self-consistency for image   4
     Message from routine setup:
     using ibrav=0 with symmetry is DISCOURAGED, use correct ibrav instead
     tcpu =  37077.2    self-consistency for image   5
     Message from routine setup:
     using ibrav=0 with symmetry is DISCOURAGED, use correct ibrav instead

     activation energy (->) =   0.336050 eV
     activation energy (<-) =   0.016829 eV

     image        energy (eV)        error (eV/A)        frozen

         1    -133597.8866532            0.150468            F
         2    -133597.5971033            0.482407            F
         3    -133597.5506032            0.273379            F
         4    -133598.0331433            0.414221            F
         5    -133597.5674326            0.162510            F

     path length          = 12.128 bohr
     inter-image distance =  3.032 bohr

     ------------------------------ iteration 262 ------------------------------

     tcpu =  37096.3    self-consistency for image   1
     Message from routine setup:
     using ibrav=0 with symmetry is DISCOURAGED, use correct ibrav instead
     tcpu =  37117.0    self-consistency for image   2
     Message from routine setup:
     using ibrav=0 with symmetry is DISCOURAGED, use correct ibrav instead
     tcpu =  37133.3    self-consistency for image   3
     Message from routine setup:
     using ibrav=0 with symmetry is DISCOURAGED, use correct ibrav instead
