
     Program NEB v.7.2 starts on  7Nov2024 at 13:10:35 

     This program is part of the open-source Quantum ESPRESSO suite
     for quantum simulation of materials; please cite
         "P. Giannozzi et al., J. Phys.:Condens. Matter 21 395502 (2009);
         "P. Giannozzi et al., J. Phys.:Condens. Matter 29 465901 (2017);
         "P. Giannozzi et al., J. Chem. Phys. 152 154105 (2020);
          URL http://www.quantum-espresso.org", 
     in publications or presentations arising from this work. More details at
     http://www.quantum-espresso.org/quote

     Parallel version (MPI), running on    96 processors

     MPI processes distributed on     2 nodes
     156629 MiB available memory on the printing compute node when the environment starts
 

     Parsing file: neb.in
     Reading input from pw_1.in
Warning: card &CELL ignored
Warning: card   CELL_DYNAMICS='BFGS', ignored
Warning: card   PRESS=0.0, ignored
Warning: card   PRESS_CONV_THR=0.5, ignored
Warning: card / ignored
     Reading input from pw_2.in
Warning: card &CELL ignored
Warning: card   CELL_DYNAMICS='BFGS', ignored
Warning: card   PRESS=0.0, ignored
Warning: card   PRESS_CONV_THR=0.5, ignored
Warning: card / ignored

     initial path length           =  8.0711 bohr
     initial inter-image distance  =  2.0178 bohr
 
     string_method                 =    neb
     restart_mode                  =    from_scratch
     opt_scheme                    =    broyden
     num_of_images                 =    5
     nstep_path                    =    1000
     CI_scheme                     =    no-CI
     first_last_opt                =    T
     use_freezing                  =    F
     ds                            =    0.0756 a.u.
     k_max                         =    0.1000 a.u.
     k_min                         =    0.0050 a.u.
     suggested k_max               =  107.9285 a.u.
     suggested k_min               =    5.3964 a.u.
     path_thr                      =    0.0010 eV / A

     ------------------------------ iteration   1 ------------------------------

     tcpu =      0.5    self-consistency for image   1
     Message from routine setup:
     using ibrav=0 with symmetry is DISCOURAGED, use correct ibrav instead
     tcpu =     49.7    self-consistency for image   2
     tcpu =     95.6    self-consistency for image   3
     tcpu =    142.8    self-consistency for image   4
     tcpu =    189.6    self-consistency for image   5
     Message from routine setup:
     using ibrav=0 with symmetry is DISCOURAGED, use correct ibrav instead

     activation energy (->) =  10.548429 eV
     activation energy (<-) =   9.730180 eV

     image        energy (eV)        error (eV/A)        frozen

         1    -133596.3164592            0.688936            F
         2    -133594.0104793            2.962858            F
         3    -133585.7680304           16.401932            F
         4    -133592.5998159            5.476507            F
         5    -133595.4982109            0.737012            F

     path length          =  8.071 bohr
     inter-image distance =  2.018 bohr

     ------------------------------ iteration   2 ------------------------------

     tcpu =    241.8    self-consistency for image   1
     Message from routine setup:
     using ibrav=0 with symmetry is DISCOURAGED, use correct ibrav instead
     tcpu =    258.8    self-consistency for image   2
     tcpu =    276.0    self-consistency for image   3
     tcpu =    301.7    self-consistency for image   4
     tcpu =    320.3    self-consistency for image   5
     Message from routine setup:
     using ibrav=0 with symmetry is DISCOURAGED, use correct ibrav instead

     activation energy (->) =  10.504163 eV
     activation energy (<-) =   9.685958 eV

     image        energy (eV)        error (eV/A)        frozen

         1    -133596.3170933            0.684767            F
         2    -133594.0124752            2.936353            F
         3    -133585.8129306           16.299583            F
         4    -133592.6067378            5.421935            F
         5    -133595.4988888            0.735333            F

     path length          =  8.071 bohr
     inter-image distance =  2.018 bohr

     ------------------------------ iteration   3 ------------------------------

     tcpu =    336.6    self-consistency for image   1
     Message from routine setup:
     using ibrav=0 with symmetry is DISCOURAGED, use correct ibrav instead
     tcpu =    377.5    self-consistency for image   2
     tcpu =    427.8    self-consistency for image   3
     tcpu =    488.8    self-consistency for image   4
     tcpu =    541.9    self-consistency for image   5
     Message from routine setup:
     using ibrav=0 with symmetry is DISCOURAGED, use correct ibrav instead

     activation energy (->) =   5.796259 eV
     activation energy (<-) =   4.986078 eV

     image        energy (eV)        error (eV/A)        frozen

         1    -133596.4180822            0.630195            F
         2    -133594.3144458            2.937785            F
         3    -133590.6218235            8.467627            F
         4    -133593.5530878            3.925664            F
         5    -133595.6079010            0.711624            F

     path length          =  8.162 bohr
     inter-image distance =  2.040 bohr

     ------------------------------ iteration   4 ------------------------------

     tcpu =    578.6    self-consistency for image   1
     Message from routine setup:
     using ibrav=0 with symmetry is DISCOURAGED, use correct ibrav instead
     tcpu =    617.8    self-consistency for image   2
     tcpu =    667.5    self-consistency for image   3
     tcpu =    730.8    self-consistency for image   4
     tcpu =    787.0    self-consistency for image   5
     Message from routine setup:
     using ibrav=0 with symmetry is DISCOURAGED, use correct ibrav instead

     activation energy (->) =   4.372036 eV
     activation energy (<-) =   3.570716 eV

     image        energy (eV)        error (eV/A)        frozen

         1    -133596.5018329            0.578313            F
         2    -133594.5424462            2.955754            F
         3    -133592.1297973            5.347667            F
         4    -133594.1265869            3.400855            F
         5    -133595.7005129            0.689846            F

     path length          =  8.394 bohr
     inter-image distance =  2.098 bohr

     ------------------------------ iteration   5 ------------------------------

     tcpu =    825.0    self-consistency for image   1
     Message from routine setup:
     using ibrav=0 with symmetry is DISCOURAGED, use correct ibrav instead
     tcpu =    861.5    self-consistency for image   2
     tcpu =    911.6    self-consistency for image   3
     tcpu =    976.8    self-consistency for image   4
     tcpu =   1031.9    self-consistency for image   5
     Message from routine setup:
     using ibrav=0 with symmetry is DISCOURAGED, use correct ibrav instead

     activation energy (->) =   4.390688 eV
     activation energy (<-) =   3.598540 eV

     image        energy (eV)        error (eV/A)        frozen

         1    -133596.5706291            0.531164            F
         2    -133594.7134582            2.863587            F
         3    -133592.1799407            4.221115            F
         4    -133594.4726552            3.123290            F
         5    -133595.7784811            0.671378            F

     path length          =  8.707 bohr
     inter-image distance =  2.177 bohr

     ------------------------------ iteration   6 ------------------------------

     tcpu =   1070.4    self-consistency for image   1
     Message from routine setup:
     using ibrav=0 with symmetry is DISCOURAGED, use correct ibrav instead
     tcpu =   1106.6    self-consistency for image   2
     tcpu =   1146.0    self-consistency for image   3
     tcpu =   1200.6    self-consistency for image   4
     tcpu =   1246.4    self-consistency for image   5
     Message from routine setup:
     using ibrav=0 with symmetry is DISCOURAGED, use correct ibrav instead

     activation energy (->) =   4.646133 eV
     activation energy (<-) =   3.857680 eV

     image        energy (eV)        error (eV/A)        frozen

         1    -133596.5946773            0.515697            F
         2    -133594.7695513            2.818387            F
         3    -133591.9485445            5.572569            F
         4    -133594.5693368            3.032864            F
         5    -133595.8062249            0.664685            F

     path length          =  8.843 bohr
     inter-image distance =  2.211 bohr

     ------------------------------ iteration   7 ------------------------------

     tcpu =   1273.5    self-consistency for image   1
     Message from routine setup:
     using ibrav=0 with symmetry is DISCOURAGED, use correct ibrav instead
     tcpu =   1289.5    self-consistency for image   2
     tcpu =   1307.8    self-consistency for image   3
     tcpu =   1326.6    self-consistency for image   4
     tcpu =   1344.7    self-consistency for image   5
     Message from routine setup:
     using ibrav=0 with symmetry is DISCOURAGED, use correct ibrav instead

     activation energy (->) =   4.639885 eV
     activation energy (<-) =   3.851554 eV

     image        energy (eV)        error (eV/A)        frozen

         1    -133596.5950663            0.511159            F
         2    -133594.7709056            2.797106            F
         3    -133591.9551811            5.551003            F
         4    -133594.5708632            3.008527            F
         5    -133595.8067347            0.660059            F

     path length          =  8.842 bohr
     inter-image distance =  2.210 bohr

     ------------------------------ iteration   8 ------------------------------

     tcpu =   1362.0    self-consistency for image   1
     Message from routine setup:
     using ibrav=0 with symmetry is DISCOURAGED, use correct ibrav instead
     tcpu =   1403.2    self-consistency for image   2
     tcpu =   1451.9    self-consistency for image   3
     tcpu =   1503.5    self-consistency for image   4
     tcpu =   1564.2    self-consistency for image   5
     Message from routine setup:
     using ibrav=0 with symmetry is DISCOURAGED, use correct ibrav instead

     activation energy (->) =   3.819858 eV
     activation energy (<-) =   3.049569 eV

     image        energy (eV)        error (eV/A)        frozen

         1    -133596.6536748            0.496356            F
         2    -133594.9635774            2.325700            F
         3    -133592.8338168            3.416863            F
         4    -133594.7896944            2.375325            F
         5    -133595.8833856            0.647429            F

     path length          =  8.746 bohr
     inter-image distance =  2.187 bohr

     ------------------------------ iteration   9 ------------------------------

     tcpu =   1604.0    self-consistency for image   1
     Message from routine setup:
     using ibrav=0 with symmetry is DISCOURAGED, use correct ibrav instead
     tcpu =   1672.2    self-consistency for image   2
     tcpu =   1730.0    self-consistency for image   3
     tcpu =   1797.6    self-consistency for image   4
     tcpu =   1855.6    self-consistency for image   5
     Message from routine setup:
     using ibrav=0 with symmetry is DISCOURAGED, use correct ibrav instead

     activation energy (->) =   2.981394 eV
     activation energy (<-) =   2.256784 eV

     image        energy (eV)        error (eV/A)        frozen

         1    -133596.7771425            0.449121            F
         2    -133595.2663309            1.948051            F
         3    -133593.7957489            1.788990            F
         4    -133595.1523366            1.183073            F
         5    -133596.0525327            0.608418            F

     path length          =  8.699 bohr
     inter-image distance =  2.175 bohr

     ------------------------------ iteration  10 ------------------------------

     tcpu =   1901.6    self-consistency for image   1
     Message from routine setup:
     using ibrav=0 with symmetry is DISCOURAGED, use correct ibrav instead
     tcpu =   1952.9    self-consistency for image   2
     tcpu =   2011.2    self-consistency for image   3
     tcpu =   2081.4    self-consistency for image   4
     tcpu =   2147.1    self-consistency for image   5
     Message from routine setup:
     using ibrav=0 with symmetry is DISCOURAGED, use correct ibrav instead

     activation energy (->) =   3.235374 eV
     activation energy (<-) =   2.549987 eV

     image        energy (eV)        error (eV/A)        frozen

         1    -133596.8590934            0.408199            F
         2    -133595.3706657            1.842506            F
         3    -133593.6237198            3.728181            F
         4    -133595.3129188            1.440983            F
         5    -133596.1737071            0.569566            F

     path length          =  8.859 bohr
     inter-image distance =  2.215 bohr

     ------------------------------ iteration  11 ------------------------------

     tcpu =   2187.6    self-consistency for image   1
     Message from routine setup:
     using ibrav=0 with symmetry is DISCOURAGED, use correct ibrav instead
     tcpu =   2216.7    self-consistency for image   2
     tcpu =   2255.9    self-consistency for image   3
     tcpu =   2299.2    self-consistency for image   4
     tcpu =   2338.5    self-consistency for image   5
     Message from routine setup:
     using ibrav=0 with symmetry is DISCOURAGED, use correct ibrav instead

     activation energy (->) =   3.175848 eV
     activation energy (<-) =   2.487218 eV

     image        energy (eV)        error (eV/A)        frozen

         1    -133596.8528766            0.410691            F
         2    -133595.3665924            1.865949            F
         3    -133593.6770283            3.440549            F
         4    -133595.3036590            1.418097            F
         5    -133596.1642467            0.571921            F

     path length          =  8.838 bohr
     inter-image distance =  2.209 bohr

     ------------------------------ iteration  12 ------------------------------

     tcpu =   2368.9    self-consistency for image   1
     Message from routine setup:
     using ibrav=0 with symmetry is DISCOURAGED, use correct ibrav instead
     tcpu =   2387.6    self-consistency for image   2
     tcpu =   2404.5    self-consistency for image   3
     tcpu =   2425.6    self-consistency for image   4
     tcpu =   2443.6    self-consistency for image   5
     Message from routine setup:
     using ibrav=0 with symmetry is DISCOURAGED, use correct ibrav instead

     activation energy (->) =   3.173420 eV
     activation energy (<-) =   2.484961 eV

     image        energy (eV)        error (eV/A)        frozen

         1    -133596.8530623            0.409316            F
         2    -133595.3669913            1.865719            F
         3    -133593.6796418            3.406880            F
         4    -133595.3041573            1.417024            F
         5    -133596.1646028            0.568018            F

     path length          =  8.838 bohr
     inter-image distance =  2.209 bohr

     ------------------------------ iteration  13 ------------------------------

     tcpu =   2460.1    self-consistency for image   1
     Message from routine setup:
     using ibrav=0 with symmetry is DISCOURAGED, use correct ibrav instead
     tcpu =   2476.4    self-consistency for image   2
     tcpu =   2493.0    self-consistency for image   3
     tcpu =   2512.5    self-consistency for image   4
     tcpu =   2528.9    self-consistency for image   5
     Message from routine setup:
     using ibrav=0 with symmetry is DISCOURAGED, use correct ibrav instead

     activation energy (->) =   3.171001 eV
     activation energy (<-) =   2.482717 eV

     image        energy (eV)        error (eV/A)        frozen

         1    -133596.8532395            0.408019            F
         2    -133595.3673805            1.865797            F
         3    -133593.6822388            3.393523            F
         4    -133595.3046505            1.416034            F
         5    -133596.1649556            0.567438            F

     path length          =  8.838 bohr
     inter-image distance =  2.209 bohr

     ------------------------------ iteration  14 ------------------------------

     tcpu =   2545.7    self-consistency for image   1
     Message from routine setup:
     using ibrav=0 with symmetry is DISCOURAGED, use correct ibrav instead
     tcpu =   2562.0    self-consistency for image   2
     tcpu =   2579.1    self-consistency for image   3
     tcpu =   2601.9    self-consistency for image   4
     tcpu =   2618.4    self-consistency for image   5
     Message from routine setup:
     using ibrav=0 with symmetry is DISCOURAGED, use correct ibrav instead

     activation energy (->) =   3.166216 eV
     activation energy (<-) =   2.478282 eV

     image        energy (eV)        error (eV/A)        frozen

         1    -133596.8535885            0.404599            F
         2    -133595.3681540            1.865298            F
         3    -133593.6873720            3.404275            F
         4    -133595.3056287            1.413705            F
         5    -133596.1656544            0.562622            F

     path length          =  8.837 bohr
     inter-image distance =  2.209 bohr

     ------------------------------ iteration  15 ------------------------------

     tcpu =   2635.6    self-consistency for image   1
     Message from routine setup:
     using ibrav=0 with symmetry is DISCOURAGED, use correct ibrav instead
     tcpu =   2653.0    self-consistency for image   2
     tcpu =   2669.7    self-consistency for image   3
     tcpu =   2699.0    self-consistency for image   4
     tcpu =   2717.3    self-consistency for image   5
     Message from routine setup:
     using ibrav=0 with symmetry is DISCOURAGED, use correct ibrav instead

     activation energy (->) =   3.152103 eV
     activation energy (<-) =   2.465212 eV

     image        energy (eV)        error (eV/A)        frozen

         1    -133596.8546043            0.390495            F
         2    -133595.3704304            1.863977            F
         3    -133593.7025013            3.356545            F
         4    -133595.3085033            1.406579            F
         5    -133596.1677129            0.546065            F

     path length          =  8.837 bohr
     inter-image distance =  2.209 bohr

     ------------------------------ iteration  16 ------------------------------

     tcpu =   2733.6    self-consistency for image   1
     Message from routine setup:
     using ibrav=0 with symmetry is DISCOURAGED, use correct ibrav instead
     tcpu =   2761.2    self-consistency for image   2
     tcpu =   2787.3    self-consistency for image   3
     tcpu =   2825.5    self-consistency for image   4
     tcpu =   2856.8    self-consistency for image   5
     Message from routine setup:
     using ibrav=0 with symmetry is DISCOURAGED, use correct ibrav instead

     activation energy (->) =   3.099088 eV
     activation energy (<-) =   2.416168 eV

     image        energy (eV)        error (eV/A)        frozen

         1    -133596.8586862            0.409076            F
         2    -133595.3792526            1.865339            F
         3    -133593.7595980            3.165824            F
         4    -133595.3198022            1.381227            F
         5    -133596.1757664            0.569947            F

     path length          =  8.834 bohr
     inter-image distance =  2.209 bohr

     ------------------------------ iteration  17 ------------------------------

     tcpu =   2884.4    self-consistency for image   1
     Message from routine setup:
     using ibrav=0 with symmetry is DISCOURAGED, use correct ibrav instead
     tcpu =   2921.2    self-consistency for image   2
     tcpu =   2956.3    self-consistency for image   3
     tcpu =   3135.4    self-consistency for image   4
     tcpu =   3169.6    self-consistency for image   5
     Message from routine setup:
     using ibrav=0 with symmetry is DISCOURAGED, use correct ibrav instead

     activation energy (->) =   2.984165 eV
     activation energy (<-) =   2.310414 eV

     image        energy (eV)        error (eV/A)        frozen

         1    -133596.8683718            0.405396            F
         2    -133595.3995445            1.859365            F
         3    -133593.8842071            2.744625            F
         4    -133595.3463539            1.319657            F
         5    -133596.1946209            0.565707            F

     path length          =  8.830 bohr
     inter-image distance =  2.207 bohr

     ------------------------------ iteration  18 ------------------------------

     tcpu =   3202.3    self-consistency for image   1
     Message from routine setup:
     using ibrav=0 with symmetry is DISCOURAGED, use correct ibrav instead
     tcpu =   3236.3    self-consistency for image   2
     tcpu =   3268.6    self-consistency for image   3
     tcpu =   3315.6    self-consistency for image   4
     tcpu =   3349.7    self-consistency for image   5
     Message from routine setup:
     using ibrav=0 with symmetry is DISCOURAGED, use correct ibrav instead

     activation energy (->) =   2.881879 eV
     activation energy (<-) =   2.217296 eV

     image        energy (eV)        error (eV/A)        frozen

         1    -133596.8783590            0.402507            F
         2    -133595.4193882            1.846854            F
         3    -133593.9964797            2.349876            F
         4    -133595.3732852            1.255921            F
         5    -133596.2137755            0.561889            F

     path length          =  8.828 bohr
     inter-image distance =  2.207 bohr

     ------------------------------ iteration  19 ------------------------------

     tcpu =   3383.3    self-consistency for image   1
     Message from routine setup:
     using ibrav=0 with symmetry is DISCOURAGED, use correct ibrav instead
     tcpu =   3422.1    self-consistency for image   2
     tcpu =   3456.6    self-consistency for image   3
     tcpu =   3504.9    self-consistency for image   4
     tcpu =   3538.6    self-consistency for image   5
     Message from routine setup:
     using ibrav=0 with symmetry is DISCOURAGED, use correct ibrav instead

     activation energy (->) =   2.805502 eV
     activation energy (<-) =   2.148811 eV

     image        energy (eV)        error (eV/A)        frozen

         1    -133596.8871258            0.398833            F
         2    -133595.4358164            1.830270            F
         3    -133594.0816235            2.034684            F
         4    -133595.3964876            1.202541            F
         5    -133596.2304343            0.556740            F

     path length          =  8.828 bohr
     inter-image distance =  2.207 bohr

     ------------------------------ iteration  20 ------------------------------

     tcpu =   3567.8    self-consistency for image   1
     Message from routine setup:
     using ibrav=0 with symmetry is DISCOURAGED, use correct ibrav instead
     tcpu =   3592.7    self-consistency for image   2
     tcpu =   3616.9    self-consistency for image   3
     tcpu =   3659.9    self-consistency for image   4
     tcpu =   3685.4    self-consistency for image   5
     Message from routine setup:
     using ibrav=0 with symmetry is DISCOURAGED, use correct ibrav instead

     activation energy (->) =   2.789751 eV
     activation energy (<-) =   2.134908 eV

     image        energy (eV)        error (eV/A)        frozen

         1    -133596.8891711            0.399451            F
         2    -133595.4394822            1.825386            F
         3    -133594.0994197            1.967421            F
         4    -133595.4018423            1.190432            F
         5    -133596.2343272            0.556291            F

     path length          =  8.828 bohr
     inter-image distance =  2.207 bohr

     ------------------------------ iteration  21 ------------------------------

     tcpu =   3705.9    self-consistency for image   1
     Message from routine setup:
     using ibrav=0 with symmetry is DISCOURAGED, use correct ibrav instead
     tcpu =   3723.0    self-consistency for image   2
     tcpu =   3740.2    self-consistency for image   3
     tcpu =   3769.9    self-consistency for image   4
     tcpu =   3786.5    self-consistency for image   5
     Message from routine setup:
     using ibrav=0 with symmetry is DISCOURAGED, use correct ibrav instead

     activation energy (->) =   2.783711 eV
     activation energy (<-) =   2.129639 eV

     image        energy (eV)        error (eV/A)        frozen

         1    -133596.8900382            0.381120            F
         2    -133595.4409659            1.821693            F
         3    -133594.1063274            1.942765            F
         4    -133595.4040705            1.184402            F
         5    -133596.2359664            0.544757            F

     path length          =  8.828 bohr
     inter-image distance =  2.207 bohr

     ------------------------------ iteration  22 ------------------------------

     tcpu =   3803.8    self-consistency for image   1
     Message from routine setup:
     using ibrav=0 with symmetry is DISCOURAGED, use correct ibrav instead
     tcpu =   3820.6    self-consistency for image   2
     tcpu =   3839.5    self-consistency for image   3
     tcpu =   3863.3    self-consistency for image   4
     tcpu =   3881.4    self-consistency for image   5
     Message from routine setup:
     using ibrav=0 with symmetry is DISCOURAGED, use correct ibrav instead

     activation energy (->) =   2.778363 eV
     activation energy (<-) =   2.125063 eV

     image        energy (eV)        error (eV/A)        frozen

         1    -133596.8908505            0.381920            F
         2    -133595.4423314            1.819802            F
         3    -133594.1124872            1.921337            F
         4    -133595.4061811            1.179821            F
         5    -133596.2375506            0.546167            F

     path length          =  8.828 bohr
     inter-image distance =  2.207 bohr

     ------------------------------ iteration  23 ------------------------------

     tcpu =   3899.0    self-consistency for image   1
     Message from routine setup:
     using ibrav=0 with symmetry is DISCOURAGED, use correct ibrav instead
     tcpu =   3921.1    self-consistency for image   2
     tcpu =   3940.3    self-consistency for image   3
     tcpu =   3965.0    self-consistency for image   4
     tcpu =   3983.1    self-consistency for image   5
     Message from routine setup:
     using ibrav=0 with symmetry is DISCOURAGED, use correct ibrav instead

     activation energy (->) =   2.772536 eV
     activation energy (<-) =   2.120123 eV

     image        energy (eV)        error (eV/A)        frozen

         1    -133596.8918243            0.398220            F
         2    -133595.4439222            1.818413            F
         3    -133594.1192880            1.897876            F
         4    -133595.4086416            1.174365            F
         5    -133596.2394110            0.543790            F

     path length          =  8.828 bohr
     inter-image distance =  2.207 bohr

     ------------------------------ iteration  24 ------------------------------

     tcpu =   4000.1    self-consistency for image   1
     Message from routine setup:
     using ibrav=0 with symmetry is DISCOURAGED, use correct ibrav instead
     tcpu =   4028.6    self-consistency for image   2
     tcpu =   4054.1    self-consistency for image   3
     tcpu =   4090.9    self-consistency for image   4
     tcpu =   4121.9    self-consistency for image   5
     Message from routine setup:
     using ibrav=0 with symmetry is DISCOURAGED, use correct ibrav instead

     activation energy (->) =   2.748004 eV
     activation energy (<-) =   2.099578 eV

     image        energy (eV)        error (eV/A)        frozen

         1    -133596.8960984            0.396937            F
         2    -133595.4507631            1.804144            F
         3    -133594.1480942            1.798539            F
         4    -133595.4194584            1.150856            F
         5    -133596.2476721            0.559708            F

     path length          =  8.830 bohr
     inter-image distance =  2.207 bohr

     ------------------------------ iteration  25 ------------------------------

     tcpu =   4151.1    self-consistency for image   1
     Message from routine setup:
     using ibrav=0 with symmetry is DISCOURAGED, use correct ibrav instead
     tcpu =   4185.4    self-consistency for image   2
     tcpu =   4223.3    self-consistency for image   3
     tcpu =   4276.2    self-consistency for image   4
     tcpu =   4313.2    self-consistency for image   5
     Message from routine setup:
     using ibrav=0 with symmetry is DISCOURAGED, use correct ibrav instead

     activation energy (->) =   2.694583 eV
     activation energy (<-) =   2.055785 eV

     image        energy (eV)        error (eV/A)        frozen

         1    -133596.9063124            0.392943            F
         2    -133595.4664713            1.770175            F
         3    -133594.2117295            1.574843            F
         4    -133595.4450154            1.096463            F
         5    -133596.2675145            0.567485            F

     path length          =  8.834 bohr
     inter-image distance =  2.208 bohr

     ------------------------------ iteration  26 ------------------------------

     tcpu =   4345.5    self-consistency for image   1
     Message from routine setup:
     using ibrav=0 with symmetry is DISCOURAGED, use correct ibrav instead
     tcpu =   4382.2    self-consistency for image   2
     tcpu =   4419.3    self-consistency for image   3
     tcpu =   4468.9    self-consistency for image   4
     tcpu =   4507.9    self-consistency for image   5
     Message from routine setup:
     using ibrav=0 with symmetry is DISCOURAGED, use correct ibrav instead

     activation energy (->) =   2.649787 eV
     activation energy (<-) =   2.020387 eV

     image        energy (eV)        error (eV/A)        frozen

         1    -133596.9161561            0.389376            F
         2    -133595.4807432            1.732551            F
         3    -133594.2663687            1.371393            F
         4    -133595.4692396            1.042074            F
         5    -133596.2867554            0.574343            F

     path length          =  8.839 bohr
     inter-image distance =  2.210 bohr

     ------------------------------ iteration  27 ------------------------------

     tcpu =   4538.8    self-consistency for image   1
     Message from routine setup:
     using ibrav=0 with symmetry is DISCOURAGED, use correct ibrav instead
     tcpu =   4575.7    self-consistency for image   2
     tcpu =   4607.6    self-consistency for image   3
     tcpu =   4657.0    self-consistency for image   4
     tcpu =   4694.4    self-consistency for image   5
     Message from routine setup:
     using ibrav=0 with symmetry is DISCOURAGED, use correct ibrav instead

     activation energy (->) =   2.618866 eV
     activation energy (<-) =   1.997016 eV

     image        energy (eV)        error (eV/A)        frozen

         1    -133596.9239239            0.386145            F
         2    -133595.4913990            1.698824            F
         3    -133594.3050574            1.218476            F
         4    -133595.4880908            0.999748            F
         5    -133596.3020734            0.577744            F

     path length          =  8.845 bohr
     inter-image distance =  2.211 bohr

     ------------------------------ iteration  28 ------------------------------

     tcpu =   4726.5    self-consistency for image   1
     Message from routine setup:
     using ibrav=0 with symmetry is DISCOURAGED, use correct ibrav instead
     tcpu =   4749.6    self-consistency for image   2
     tcpu =   4774.1    self-consistency for image   3
     tcpu =   4802.2    self-consistency for image   4
     tcpu =   4828.6    self-consistency for image   5
     Message from routine setup:
     using ibrav=0 with symmetry is DISCOURAGED, use correct ibrav instead

     activation energy (->) =   2.612775 eV
     activation energy (<-) =   1.992588 eV

     image        energy (eV)        error (eV/A)        frozen

         1    -133596.9256166            0.386311            F
         2    -133595.4936278            1.691495            F
         3    -133594.3128418            1.187567            F
         4    -133595.4921691            0.991199            F
         5    -133596.3054301            0.577928            F

     path length          =  8.846 bohr
     inter-image distance =  2.211 bohr

     ------------------------------ iteration  29 ------------------------------

     tcpu =   4852.1    self-consistency for image   1
     Message from routine setup:
     using ibrav=0 with symmetry is DISCOURAGED, use correct ibrav instead
     tcpu =   4868.1    self-consistency for image   2
     tcpu =   4885.1    self-consistency for image   3
     tcpu =   4908.1    self-consistency for image   4
     tcpu =   4929.0    self-consistency for image   5
     Message from routine setup:
     using ibrav=0 with symmetry is DISCOURAGED, use correct ibrav instead

     activation energy (->) =   2.610369 eV
     activation energy (<-) =   1.990893 eV

     image        energy (eV)        error (eV/A)        frozen

         1    -133596.9263391            0.374777            F
         2    -133595.4945577            1.690524            F
         3    -133594.3159704            1.176262            F
         4    -133595.4938602            0.960209            F
         5    -133596.3068639            0.566278            F

     path length          =  8.846 bohr
     inter-image distance =  2.212 bohr

     ------------------------------ iteration  30 ------------------------------

     tcpu =   4946.8    self-consistency for image   1
     Message from routine setup:
     using ibrav=0 with symmetry is DISCOURAGED, use correct ibrav instead
     tcpu =   4963.6    self-consistency for image   2
     tcpu =   4981.4    self-consistency for image   3
     tcpu =   5004.3    self-consistency for image   4
     tcpu =   5021.5    self-consistency for image   5
     Message from routine setup:
     using ibrav=0 with symmetry is DISCOURAGED, use correct ibrav instead

     activation energy (->) =   2.608028 eV
     activation energy (<-) =   1.989321 eV

     image        energy (eV)        error (eV/A)        frozen

         1    -133596.9270622            0.369524            F
         2    -133595.4954655            1.687953            F
         3    -133594.3190341            1.166547            F
         4    -133595.4956150            0.959871            F
         5    -133596.3083551            0.565955            F

     path length          =  8.847 bohr
     inter-image distance =  2.212 bohr

     ------------------------------ iteration  31 ------------------------------

     tcpu =   5039.9    self-consistency for image   1
     Message from routine setup:
     using ibrav=0 with symmetry is DISCOURAGED, use correct ibrav instead
     tcpu =   5060.2    self-consistency for image   2
     tcpu =   5083.4    self-consistency for image   3
     tcpu =   5107.7    self-consistency for image   4
     tcpu =   5128.0    self-consistency for image   5
     Message from routine setup:
     using ibrav=0 with symmetry is DISCOURAGED, use correct ibrav instead

     activation energy (->) =   2.605123 eV
     activation energy (<-) =   1.987422 eV

     image        energy (eV)        error (eV/A)        frozen

         1    -133596.9280381            0.385660            F
         2    -133595.4966704            1.680681            F
         3    -133594.3229156            1.154935            F
         4    -133595.4978486            0.948146            F
         5    -133596.3103378            0.577375            F

     path length          =  8.848 bohr
     inter-image distance =  2.212 bohr

     ------------------------------ iteration  32 ------------------------------

     tcpu =   5150.1    self-consistency for image   1
     Message from routine setup:
     using ibrav=0 with symmetry is DISCOURAGED, use correct ibrav instead
     tcpu =   5181.0    self-consistency for image   2
     tcpu =   5212.1    self-consistency for image   3
     tcpu =   5251.1    self-consistency for image   4
     tcpu =   5284.1    self-consistency for image   5
     Message from routine setup:
     using ibrav=0 with symmetry is DISCOURAGED, use correct ibrav instead

     activation energy (->) =   2.590824 eV
     activation energy (<-) =   1.978255 eV

     image        energy (eV)        error (eV/A)        frozen

         1    -133596.9329236            0.383340            F
         2    -133595.5026071            1.657531            F
         3    -133594.3420993            1.098964            F
         4    -133595.5092667            0.958701            F
         5    -133596.3203539            0.574494            F

     path length          =  8.851 bohr
     inter-image distance =  2.213 bohr

     ------------------------------ iteration  33 ------------------------------

     tcpu =   5314.1    self-consistency for image   1
     Message from routine setup:
     using ibrav=0 with symmetry is DISCOURAGED, use correct ibrav instead
     tcpu =   5351.8    self-consistency for image   2
     tcpu =   5393.8    self-consistency for image   3
     tcpu =   5438.9    self-consistency for image   4
     tcpu =   5478.0    self-consistency for image   5
     Message from routine setup:
     using ibrav=0 with symmetry is DISCOURAGED, use correct ibrav instead

     activation energy (->) =   2.557749 eV
     activation energy (<-) =   1.957898 eV

     image        energy (eV)        error (eV/A)        frozen

         1    -133596.9448814            0.379634            F
         2    -133595.5166686            1.598935            F
         3    -133594.3871327            0.967689            F
         4    -133595.5368713            0.907887            F
         5    -133596.3450308            0.566205            F

     path length          =  8.861 bohr
     inter-image distance =  2.215 bohr

     ------------------------------ iteration  34 ------------------------------

     tcpu =   5514.2    self-consistency for image   1
     Message from routine setup:
     using ibrav=0 with symmetry is DISCOURAGED, use correct ibrav instead
     tcpu =   5551.1    self-consistency for image   2
     tcpu =   5593.8    self-consistency for image   3
     tcpu =   5642.3    self-consistency for image   4
     tcpu =   5686.0    self-consistency for image   5
     Message from routine setup:
     using ibrav=0 with symmetry is DISCOURAGED, use correct ibrav instead

     activation energy (->) =   2.529151 eV
     activation energy (<-) =   1.941433 eV

     image        energy (eV)        error (eV/A)        frozen

         1    -133596.9560908            0.374340            F
         2    -133595.5291877            1.540504            F
         3    -133594.4269401            0.848162            F
         4    -133595.5624022            0.855403            F
         5    -133596.3683733            0.559300            F

     path length          =  8.871 bohr
     inter-image distance =  2.218 bohr

     ------------------------------ iteration  35 ------------------------------

     tcpu =   5723.7    self-consistency for image   1
     Message from routine setup:
     using ibrav=0 with symmetry is DISCOURAGED, use correct ibrav instead
     tcpu =   5760.0    self-consistency for image   2
     tcpu =   5801.8    self-consistency for image   3
     tcpu =   5849.6    self-consistency for image   4
     tcpu =   5885.8    self-consistency for image   5
     Message from routine setup:
     using ibrav=0 with symmetry is DISCOURAGED, use correct ibrav instead

     activation energy (->) =   2.509802 eV
     activation energy (<-) =   1.931048 eV

     image        energy (eV)        error (eV/A)        frozen

         1    -133596.9642532            0.372102            F
         2    -133595.5378984            1.495619            F
         3    -133594.4544515            0.824098            F
         4    -133595.5807516            0.818696            F
         5    -133596.3855000            0.555468            F

     path length          =  8.879 bohr
     inter-image distance =  2.220 bohr

     ------------------------------ iteration  36 ------------------------------

     tcpu =   5918.3    self-consistency for image   1
     Message from routine setup:
     using ibrav=0 with symmetry is DISCOURAGED, use correct ibrav instead
     tcpu =   5942.1    self-consistency for image   2
     tcpu =   5969.1    self-consistency for image   3
     tcpu =   5999.2    self-consistency for image   4
     tcpu =   6026.7    self-consistency for image   5
     Message from routine setup:
     using ibrav=0 with symmetry is DISCOURAGED, use correct ibrav instead

     activation energy (->) =   2.506221 eV
     activation energy (<-) =   1.929214 eV

     image        energy (eV)        error (eV/A)        frozen

         1    -133596.9658259            0.372511            F
         2    -133595.5395462            1.486938            F
         3    -133594.4596047            0.829534            F
         4    -133595.5842671            0.811824            F
         5    -133596.3888183            0.554133            F

     path length          =  8.881 bohr
     inter-image distance =  2.220 bohr

     ------------------------------ iteration  37 ------------------------------

     tcpu =   6048.9    self-consistency for image   1
     Message from routine setup:
     using ibrav=0 with symmetry is DISCOURAGED, use correct ibrav instead
     tcpu =   6065.5    self-consistency for image   2
     tcpu =   6084.5    self-consistency for image   3
     tcpu =   6108.8    self-consistency for image   4
     tcpu =   6129.8    self-consistency for image   5
     Message from routine setup:
     using ibrav=0 with symmetry is DISCOURAGED, use correct ibrav instead

     activation energy (->) =   2.504772 eV
     activation energy (<-) =   1.928496 eV

     image        energy (eV)        error (eV/A)        frozen

         1    -133596.9664629            0.360958            F
         2    -133595.5402057            1.492408            F
         3    -133594.4616906            0.829047            F
         4    -133595.5856660            0.827636            F
         5    -133596.3901868            0.540121            F

     path length          =  8.882 bohr
     inter-image distance =  2.220 bohr

     ------------------------------ iteration  38 ------------------------------

     tcpu =   6146.7    self-consistency for image   1
     Message from routine setup:
     using ibrav=0 with symmetry is DISCOURAGED, use correct ibrav instead
     tcpu =   6163.4    self-consistency for image   2
     tcpu =   6183.1    self-consistency for image   3
     tcpu =   6204.2    self-consistency for image   4
     tcpu =   6221.3    self-consistency for image   5
     Message from routine setup:
     using ibrav=0 with symmetry is DISCOURAGED, use correct ibrav instead

     activation energy (->) =   2.503290 eV
     activation energy (<-) =   1.927760 eV

     image        energy (eV)        error (eV/A)        frozen

         1    -133596.9671057            0.355381            F
         2    -133595.5408856            1.489057            F
         3    -133594.4638152            0.828877            F
         4    -133595.5871083            0.825947            F
         5    -133596.3915753            0.540020            F

     path length          =  8.882 bohr
     inter-image distance =  2.221 bohr

     ------------------------------ iteration  39 ------------------------------

     tcpu =   6238.8    self-consistency for image   1
     Message from routine setup:
     using ibrav=0 with symmetry is DISCOURAGED, use correct ibrav instead
     tcpu =   6260.6    self-consistency for image   2
     tcpu =   6282.2    self-consistency for image   3
     tcpu =   6307.8    self-consistency for image   4
     tcpu =   6328.8    self-consistency for image   5
     Message from routine setup:
     using ibrav=0 with symmetry is DISCOURAGED, use correct ibrav instead

     activation energy (->) =   2.501240 eV
     activation energy (<-) =   1.926761 eV

     image        energy (eV)        error (eV/A)        frozen

         1    -133596.9680282            0.371694            F
         2    -133595.5418803            1.475924            F
         3    -133594.4667878            0.829294            F
         4    -133595.5890653            0.832590            F
         5    -133596.3935489            0.552527            F

     path length          =  8.883 bohr
     inter-image distance =  2.221 bohr

     ------------------------------ iteration  40 ------------------------------

     tcpu =   6351.0    self-consistency for image   1
     Message from routine setup:
     using ibrav=0 with symmetry is DISCOURAGED, use correct ibrav instead
     tcpu =   6382.2    self-consistency for image   2
     tcpu =   6418.8    self-consistency for image   3
     tcpu =   6458.1    self-consistency for image   4
     tcpu =   6498.7    self-consistency for image   5
     Message from routine setup:
     using ibrav=0 with symmetry is DISCOURAGED, use correct ibrav instead

     activation energy (->) =   2.489534 eV
     activation energy (<-) =   1.921191 eV

     image        energy (eV)        error (eV/A)        frozen

         1    -133596.9732518            0.369810            F
         2    -133595.5474301            1.447973            F
         3    -133594.4837178            0.824399            F
         4    -133595.6005112            0.799782            F
         5    -133596.4049084            0.548213            F

     path length          =  8.888 bohr
     inter-image distance =  2.222 bohr

     ------------------------------ iteration  41 ------------------------------

     tcpu =   6528.7    self-consistency for image   1
     Message from routine setup:
     using ibrav=0 with symmetry is DISCOURAGED, use correct ibrav instead
     tcpu =   6567.0    self-consistency for image   2
     tcpu =   6613.3    self-consistency for image   3
     tcpu =   6663.4    self-consistency for image   4
     tcpu =   6708.8    self-consistency for image   5
     Message from routine setup:
     using ibrav=0 with symmetry is DISCOURAGED, use correct ibrav instead

     activation energy (->) =   2.460285 eV
     activation energy (<-) =   1.907654 eV

     image        energy (eV)        error (eV/A)        frozen

         1    -133596.9865005            0.364999            F
         2    -133595.5611972            1.376531            F
         3    -133594.5262158            0.810767            F
         4    -133595.6291696            0.783046            F
         5    -133596.4338694            0.538974            F

     path length          =  8.901 bohr
     inter-image distance =  2.225 bohr

     ------------------------------ iteration  42 ------------------------------

     tcpu =   6741.9    self-consistency for image   1
     Message from routine setup:
     using ibrav=0 with symmetry is DISCOURAGED, use correct ibrav instead
     tcpu =   6783.7    self-consistency for image   2
     tcpu =   6820.7    self-consistency for image   3
     tcpu =   6867.3    self-consistency for image   4
     tcpu =   6909.5    self-consistency for image   5
     Message from routine setup:
     using ibrav=0 with symmetry is DISCOURAGED, use correct ibrav instead

     activation energy (->) =   2.433393 eV
     activation energy (<-) =   1.895758 eV

     image        energy (eV)        error (eV/A)        frozen

         1    -133596.9989374            0.361356            F
         2    -133595.5736856            1.306031            F
         3    -133594.5655444            0.798165            F
         4    -133595.6557371            0.767529            F
         5    -133596.4613022            0.525751            F

     path length          =  8.915 bohr
     inter-image distance =  2.229 bohr

     ------------------------------ iteration  43 ------------------------------

     tcpu =   6943.7    self-consistency for image   1
     Message from routine setup:
     using ibrav=0 with symmetry is DISCOURAGED, use correct ibrav instead
     tcpu =   6981.9    self-consistency for image   2
     tcpu =   7020.4    self-consistency for image   3
     tcpu =   7072.1    self-consistency for image   4
     tcpu =   7115.8    self-consistency for image   5
     Message from routine setup:
     using ibrav=0 with symmetry is DISCOURAGED, use correct ibrav instead

     activation energy (->) =   2.415379 eV
     activation energy (<-) =   1.888112 eV

     image        energy (eV)        error (eV/A)        frozen

         1    -133597.0074035            0.358282            F
         2    -133595.5819754            1.256857            F
         3    -133594.5920241            0.788155            F
         4    -133595.6736413            0.774522            F
         5    -133596.4801362            0.516913            F

     path length          =  8.925 bohr
     inter-image distance =  2.231 bohr

     ------------------------------ iteration  44 ------------------------------

     tcpu =   7151.5    self-consistency for image   1
     Message from routine setup:
     using ibrav=0 with symmetry is DISCOURAGED, use correct ibrav instead
     tcpu =   7175.3    self-consistency for image   2
     tcpu =   7202.1    self-consistency for image   3
     tcpu =   7236.0    self-consistency for image   4
     tcpu =   7262.5    self-consistency for image   5
     Message from routine setup:
     using ibrav=0 with symmetry is DISCOURAGED, use correct ibrav instead

     activation energy (->) =   2.412342 eV
     activation energy (<-) =   1.886852 eV

     image        energy (eV)        error (eV/A)        frozen

         1    -133597.0088384            0.359665            F
         2    -133595.5833834            1.248649            F
         3    -133594.5964967            0.786160            F
         4    -133595.6766551            0.777135            F
         5    -133596.4833492            0.516613            F

     path length          =  8.926 bohr
     inter-image distance =  2.232 bohr

     ------------------------------ iteration  45 ------------------------------

     tcpu =   7284.5    self-consistency for image   1
     Message from routine setup:
     using ibrav=0 with symmetry is DISCOURAGED, use correct ibrav instead
     tcpu =   7300.4    self-consistency for image   2
     tcpu =   7321.6    self-consistency for image   3
     tcpu =   7342.4    self-consistency for image   4
     tcpu =   7362.5    self-consistency for image   5
     Message from routine setup:
     using ibrav=0 with symmetry is DISCOURAGED, use correct ibrav instead

     activation energy (->) =   2.411218 eV
     activation energy (<-) =   1.886429 eV

     image        energy (eV)        error (eV/A)        frozen

         1    -133597.0093973            0.344184            F
         2    -133595.5839299            1.255502            F
         3    -133594.5981791            0.756991            F
         4    -133595.6777999            0.774367            F
         5    -133596.4846084            0.502510            F

     path length          =  8.927 bohr
     inter-image distance =  2.232 bohr

     ------------------------------ iteration  46 ------------------------------

     tcpu =   7379.9    self-consistency for image   1
     Message from routine setup:
     using ibrav=0 with symmetry is DISCOURAGED, use correct ibrav instead
     tcpu =   7397.1    self-consistency for image   2
     tcpu =   7415.8    self-consistency for image   3
     tcpu =   7437.6    self-consistency for image   4
     tcpu =   7458.7    self-consistency for image   5
     Message from routine setup:
     using ibrav=0 with symmetry is DISCOURAGED, use correct ibrav instead

     activation energy (->) =   2.410032 eV
     activation energy (<-) =   1.885938 eV

     image        energy (eV)        error (eV/A)        frozen

         1    -133597.0099373            0.343600            F
         2    -133595.5844990            1.251725            F
         3    -133594.5999048            0.760961            F
         4    -133595.6789323            0.772893            F
         5    -133596.4858430            0.503907            F

     path length          =  8.927 bohr
     inter-image distance =  2.232 bohr

     ------------------------------ iteration  47 ------------------------------

     tcpu =   7475.5    self-consistency for image   1
     Message from routine setup:
     using ibrav=0 with symmetry is DISCOURAGED, use correct ibrav instead
     tcpu =   7496.4    self-consistency for image   2
     tcpu =   7520.1    self-consistency for image   3
     tcpu =   7540.6    self-consistency for image   4
     tcpu =   7562.0    self-consistency for image   5
     Message from routine setup:
     using ibrav=0 with symmetry is DISCOURAGED, use correct ibrav instead

     activation energy (->) =   2.408434 eV
     activation energy (<-) =   1.885389 eV

     image        energy (eV)        error (eV/A)        frozen

         1    -133597.0107484            0.356558            F
         2    -133595.5854076            1.239357            F
         3    -133594.6023148            0.733744            F
         4    -133595.6805624            0.781766            F
         5    -133596.4877036            0.515472            F

     path length          =  8.928 bohr
     inter-image distance =  2.232 bohr

     ------------------------------ iteration  48 ------------------------------

     tcpu =   7583.7    self-consistency for image   1
     Message from routine setup:
     using ibrav=0 with symmetry is DISCOURAGED, use correct ibrav instead
     tcpu =   7621.7    self-consistency for image   2
     tcpu =   7658.3    self-consistency for image   3
     tcpu =   7699.3    self-consistency for image   4
     tcpu =   7738.4    self-consistency for image   5
     Message from routine setup:
     using ibrav=0 with symmetry is DISCOURAGED, use correct ibrav instead

     activation energy (->) =   2.398002 eV
     activation energy (<-) =   1.881313 eV

     image        energy (eV)        error (eV/A)        frozen

         1    -133597.0156584            0.356665            F
         2    -133595.5907258            1.213627            F
         3    -133594.6176560            0.764844            F
         4    -133595.6906990            0.782703            F
         5    -133596.4989690            0.510532            F

     path length          =  8.933 bohr
     inter-image distance =  2.233 bohr

     ------------------------------ iteration  49 ------------------------------

     tcpu =   7768.8    self-consistency for image   1
     Message from routine setup:
     using ibrav=0 with symmetry is DISCOURAGED, use correct ibrav instead
     tcpu =   7806.6    self-consistency for image   2
     tcpu =   7850.2    self-consistency for image   3
     tcpu =   7896.9    self-consistency for image   4
     tcpu =   7944.3    self-consistency for image   5
     Message from routine setup:
     using ibrav=0 with symmetry is DISCOURAGED, use correct ibrav instead

     activation energy (->) =   2.369729 eV
     activation energy (<-) =   1.870778 eV

     image        energy (eV)        error (eV/A)        frozen

         1    -133597.0291909            0.351605            F
         2    -133595.6052461            1.142363            F
         3    -133594.6594620            0.720050            F
         4    -133595.7183018            0.793625            F
         5    -133596.5302397            0.501342            F

     path length          =  8.948 bohr
     inter-image distance =  2.237 bohr

     ------------------------------ iteration  50 ------------------------------

     tcpu =   7980.5    self-consistency for image   1
     Message from routine setup:
     using ibrav=0 with symmetry is DISCOURAGED, use correct ibrav instead
     tcpu =   8021.0    self-consistency for image   2
     tcpu =   8063.3    self-consistency for image   3
     tcpu =   8112.4    self-consistency for image   4
     tcpu =   8162.3    self-consistency for image   5
     Message from routine setup:
     using ibrav=0 with symmetry is DISCOURAGED, use correct ibrav instead

     activation energy (->) =   2.342729 eV
     activation energy (<-) =   1.861119 eV

     image        energy (eV)        error (eV/A)        frozen

         1    -133597.0422351            0.348094            F
         2    -133595.6189512            1.071214            F
         3    -133594.6995066            0.675971            F
         4    -133595.7445994            0.803273            F
         5    -133596.5606257            0.490624            F

     path length          =  8.963 bohr
     inter-image distance =  2.241 bohr

     ------------------------------ iteration  51 ------------------------------

     tcpu =   8198.6    self-consistency for image   1
     Message from routine setup:
     using ibrav=0 with symmetry is DISCOURAGED, use correct ibrav instead
     tcpu =   8238.9    self-consistency for image   2
     tcpu =   8281.0    self-consistency for image   3
     tcpu =   8322.4    self-consistency for image   4
     tcpu =   8366.3    self-consistency for image   5
     Message from routine setup:
     using ibrav=0 with symmetry is DISCOURAGED, use correct ibrav instead

     activation energy (->) =   2.325634 eV
     activation energy (<-) =   1.855225 eV

     image        energy (eV)        error (eV/A)        frozen

         1    -133597.0505886            0.346849            F
         2    -133595.6275796            1.025020            F
         3    -133594.7249545            0.645292            F
         4    -133595.7612259            0.808948            F
         5    -133596.5801795            0.484160            F

     path length          =  8.973 bohr
     inter-image distance =  2.243 bohr

     ------------------------------ iteration  52 ------------------------------

     tcpu =   8402.6    self-consistency for image   1
     Message from routine setup:
     using ibrav=0 with symmetry is DISCOURAGED, use correct ibrav instead
     tcpu =   8426.5    self-consistency for image   2
     tcpu =   8452.9    self-consistency for image   3
     tcpu =   8482.8    self-consistency for image   4
     tcpu =   8510.2    self-consistency for image   5
     Message from routine setup:
     using ibrav=0 with symmetry is DISCOURAGED, use correct ibrav instead

     activation energy (->) =   2.322890 eV
     activation energy (<-) =   1.854304 eV

     image        energy (eV)        error (eV/A)        frozen

         1    -133597.0519224            0.346991            F
         2    -133595.6289822            1.017528            F
         3    -133594.7290324            0.640726            F
         4    -133595.7638907            0.809504            F
         5    -133596.5833366            0.484205            F

     path length          =  8.975 bohr
     inter-image distance =  2.244 bohr

     ------------------------------ iteration  53 ------------------------------

     tcpu =   8532.4    self-consistency for image   1
     Message from routine setup:
     using ibrav=0 with symmetry is DISCOURAGED, use correct ibrav instead
     tcpu =   8549.1    self-consistency for image   2
     tcpu =   8569.7    self-consistency for image   3
     tcpu =   8591.8    self-consistency for image   4
     tcpu =   8611.8    self-consistency for image   5
     Message from routine setup:
     using ibrav=0 with symmetry is DISCOURAGED, use correct ibrav instead

     activation energy (->) =   2.321978 eV
     activation energy (<-) =   1.854046 eV

     image        energy (eV)        error (eV/A)        frozen

         1    -133597.0524086            0.336675            F
         2    -133595.6294895            1.026139            F
         3    -133594.7304301            0.614569            F
         4    -133595.7648117            0.789522            F
         5    -133596.5844765            0.468428            F

     path length          =  8.976 bohr
     inter-image distance =  2.244 bohr

     ------------------------------ iteration  54 ------------------------------

     tcpu =   8628.4    self-consistency for image   1
     Message from routine setup:
     using ibrav=0 with symmetry is DISCOURAGED, use correct ibrav instead
     tcpu =   8645.4    self-consistency for image   2
     tcpu =   8666.0    self-consistency for image   3
     tcpu =   8685.8    self-consistency for image   4
     tcpu =   8705.7    self-consistency for image   5
     Message from routine setup:
     using ibrav=0 with symmetry is DISCOURAGED, use correct ibrav instead

     activation energy (->) =   2.321020 eV
     activation energy (<-) =   1.853716 eV

     image        energy (eV)        error (eV/A)        frozen

         1    -133597.0528637            0.333430            F
         2    -133595.6300010            1.022167            F
         3    -133594.7318433            0.610541            F
         4    -133595.7657034            0.791288            F
         5    -133596.5855595            0.470694            F

     path length          =  8.976 bohr
     inter-image distance =  2.244 bohr

     ------------------------------ iteration  55 ------------------------------

     tcpu =   8722.5    self-consistency for image   1
     Message from routine setup:
     using ibrav=0 with symmetry is DISCOURAGED, use correct ibrav instead
     tcpu =   8743.0    self-consistency for image   2
     tcpu =   8766.6    self-consistency for image   3
     tcpu =   8792.0    self-consistency for image   4
     tcpu =   8817.8    self-consistency for image   5
     Message from routine setup:
     using ibrav=0 with symmetry is DISCOURAGED, use correct ibrav instead

     activation energy (->) =   2.319557 eV
     activation energy (<-) =   1.853255 eV

     image        energy (eV)        error (eV/A)        frozen

         1    -133597.0535810            0.345298            F
         2    -133595.6308666            1.010125            F
         3    -133594.7340236            0.633964            F
         4    -133595.7671290            0.809374            F
         5    -133596.5872785            0.483481            F

     path length          =  8.977 bohr
     inter-image distance =  2.244 bohr

     ------------------------------ iteration  56 ------------------------------

     tcpu =   8839.2    self-consistency for image   1
     Message from routine setup:
     using ibrav=0 with symmetry is DISCOURAGED, use correct ibrav instead
     tcpu =   8877.5    self-consistency for image   2
     tcpu =   8916.2    self-consistency for image   3
     tcpu =   8957.3    self-consistency for image   4
     tcpu =   8998.5    self-consistency for image   5
     Message from routine setup:
     using ibrav=0 with symmetry is DISCOURAGED, use correct ibrav instead

     activation energy (->) =   2.308301 eV
     activation energy (<-) =   1.849861 eV

     image        energy (eV)        error (eV/A)        frozen

         1    -133597.0591861            0.344582            F
         2    -133595.6374591            0.982797            F
         3    -133594.7508854            0.611416            F
         4    -133595.7780653            0.807557            F
         5    -133596.6007469            0.479836            F

     path length          =  8.983 bohr
     inter-image distance =  2.246 bohr

     ------------------------------ iteration  57 ------------------------------

     tcpu =   9032.0    self-consistency for image   1
     Message from routine setup:
     using ibrav=0 with symmetry is DISCOURAGED, use correct ibrav instead
     tcpu =   9071.3    self-consistency for image   2
     tcpu =   9118.5    self-consistency for image   3
     tcpu =   9173.7    self-consistency for image   4
     tcpu =   9219.8    self-consistency for image   5
     Message from routine setup:
     using ibrav=0 with symmetry is DISCOURAGED, use correct ibrav instead

     activation energy (->) =   2.278333 eV
     activation energy (<-) =   1.841203 eV

     image        energy (eV)        error (eV/A)        frozen

         1    -133597.0743198            0.340816            F
         2    -133595.6550192            0.908449            F
         3    -133594.7959868            0.552973            F
         4    -133595.8072712            0.801107            F
         5    -133596.6371900            0.476638            F

     path length          =  9.001 bohr
     inter-image distance =  2.250 bohr

     ------------------------------ iteration  58 ------------------------------

     tcpu =   9259.3    self-consistency for image   1
     Message from routine setup:
     using ibrav=0 with symmetry is DISCOURAGED, use correct ibrav instead
     tcpu =   9301.5    self-consistency for image   2
     tcpu =   9352.7    self-consistency for image   3
     tcpu =   9402.3    self-consistency for image   4
     tcpu =   9453.4    self-consistency for image   5
     Message from routine setup:
     using ibrav=0 with symmetry is DISCOURAGED, use correct ibrav instead

     activation energy (->) =   2.249596 eV
     activation energy (<-) =   1.833462 eV

     image        energy (eV)        error (eV/A)        frozen

         1    -133597.0890733            0.335738            F
         2    -133595.6718270            0.884621            F
         3    -133594.8394777            0.495883            F
         4    -133595.8353508            0.795211            F
         5    -133596.6729395            0.470062            F

     path length          =  9.020 bohr
     inter-image distance =  2.255 bohr

     ------------------------------ iteration  59 ------------------------------

     tcpu =   9493.5    self-consistency for image   1
     Message from routine setup:
     using ibrav=0 with symmetry is DISCOURAGED, use correct ibrav instead
     tcpu =   9531.9    self-consistency for image   2
     tcpu =   9573.7    self-consistency for image   3
     tcpu =   9616.2    self-consistency for image   4
     tcpu =   9661.9    self-consistency for image   5
     Message from routine setup:
     using ibrav=0 with symmetry is DISCOURAGED, use correct ibrav instead

     activation energy (->) =   2.232464 eV
     activation energy (<-) =   1.829142 eV

     image        energy (eV)        error (eV/A)        frozen

         1    -133597.0979932            0.331390            F
         2    -133595.6818308            0.870554            F
         3    -133594.8655296            0.461249            F
         4    -133595.8521283            0.790583            F
         5    -133596.6946712            0.464790            F

     path length          =  9.032 bohr
     inter-image distance =  2.258 bohr

     ------------------------------ iteration  60 ------------------------------

     tcpu =   9699.2    self-consistency for image   1
     Message from routine setup:
     using ibrav=0 with symmetry is DISCOURAGED, use correct ibrav instead
     tcpu =   9723.2    self-consistency for image   2
     tcpu =   9751.2    self-consistency for image   3
     tcpu =   9782.8    self-consistency for image   4
     tcpu =   9808.2    self-consistency for image   5
     Message from routine setup:
     using ibrav=0 with symmetry is DISCOURAGED, use correct ibrav instead

     activation energy (->) =   2.230362 eV
     activation energy (<-) =   1.828635 eV

     image        energy (eV)        error (eV/A)        frozen

         1    -133597.0990959            0.332775            F
         2    -133595.6830802            0.867713            F
         3    -133594.8687334            0.456668            F
         4    -133595.8541819            0.790505            F
         5    -133596.6973689            0.463384            F

     path length          =  9.033 bohr
     inter-image distance =  2.258 bohr

     ------------------------------ iteration  61 ------------------------------

     tcpu =   9831.4    self-consistency for image   1
     Message from routine setup:
     using ibrav=0 with symmetry is DISCOURAGED, use correct ibrav instead
     tcpu =   9848.1    self-consistency for image   2
     tcpu =   9869.1    self-consistency for image   3
     tcpu =   9891.2    self-consistency for image   4
     tcpu =   9910.5    self-consistency for image   5
     Message from routine setup:
     using ibrav=0 with symmetry is DISCOURAGED, use correct ibrav instead

     activation energy (->) =   2.229599 eV
     activation energy (<-) =   1.828458 eV

     image        energy (eV)        error (eV/A)        frozen

         1    -133597.0995032            0.320947            F
         2    -133595.6835481            0.839675            F
         3    -133594.8699039            0.454745            F
         4    -133595.8549163            0.769201            F
         5    -133596.6983617            0.442401            F

     path length          =  9.034 bohr
     inter-image distance =  2.258 bohr

     ------------------------------ iteration  62 ------------------------------

     tcpu =   9927.9    self-consistency for image   1
     Message from routine setup:
     using ibrav=0 with symmetry is DISCOURAGED, use correct ibrav instead
     tcpu =   9943.7    self-consistency for image   2
     tcpu =   9964.8    self-consistency for image   3
     tcpu =   9981.6    self-consistency for image   4
     tcpu =  10000.6    self-consistency for image   5
     Message from routine setup:
     using ibrav=0 with symmetry is DISCOURAGED, use correct ibrav instead

     activation energy (->) =   2.228865 eV
     activation energy (<-) =   1.828296 eV

     image        energy (eV)        error (eV/A)        frozen

         1    -133597.0998889            0.320146            F
         2    -133595.6840282            0.842477            F
         3    -133594.8710234            0.433425            F
         4    -133595.8556168            0.769884            F
         5    -133596.6993192            0.446045            F

     path length          =  9.034 bohr
     inter-image distance =  2.259 bohr

     ------------------------------ iteration  63 ------------------------------

     tcpu =  10017.7    self-consistency for image   1
     Message from routine setup:
     using ibrav=0 with symmetry is DISCOURAGED, use correct ibrav instead
     tcpu =  10037.2    self-consistency for image   2
     tcpu =  10061.0    self-consistency for image   3
     tcpu =  10085.5    self-consistency for image   4
     tcpu =  10105.8    self-consistency for image   5
     Message from routine setup:
     using ibrav=0 with symmetry is DISCOURAGED, use correct ibrav instead

     activation energy (->) =   2.227680 eV
     activation energy (<-) =   1.828054 eV

     image        energy (eV)        error (eV/A)        frozen

         1    -133597.1005241            0.330940            F
         2    -133595.6848759            0.862576            F
         3    -133594.8728439            0.450754            F
         4    -133595.8567117            0.757654            F
         5    -133596.7008982            0.463158            F

     path length          =  9.035 bohr
     inter-image distance =  2.259 bohr

     ------------------------------ iteration  64 ------------------------------

     tcpu =  10126.7    self-consistency for image   1
     Message from routine setup:
     using ibrav=0 with symmetry is DISCOURAGED, use correct ibrav instead
     tcpu =  10164.7    self-consistency for image   2
     tcpu =  10210.4    self-consistency for image   3
     tcpu =  10252.2    self-consistency for image   4
     tcpu =  10292.5    self-consistency for image   5
     Message from routine setup:
     using ibrav=0 with symmetry is DISCOURAGED, use correct ibrav instead

     activation energy (->) =   2.216539 eV
     activation energy (<-) =   1.825853 eV

     image        energy (eV)        error (eV/A)        frozen

         1    -133597.1065226            0.329326            F
         2    -133595.6926563            0.848238            F
         3    -133594.8899832            0.435494            F
         4    -133595.8675066            0.781249            F
         5    -133596.7158357            0.460390            F

     path length          =  9.042 bohr
     inter-image distance =  2.260 bohr

     ------------------------------ iteration  65 ------------------------------

     tcpu =  10329.1    self-consistency for image   1
     Message from routine setup:
     using ibrav=0 with symmetry is DISCOURAGED, use correct ibrav instead
     tcpu =  10371.3    self-consistency for image   2
     tcpu =  10419.3    self-consistency for image   3
     tcpu =  10468.5    self-consistency for image   4
     tcpu =  10520.3    self-consistency for image   5
     Message from routine setup:
     using ibrav=0 with symmetry is DISCOURAGED, use correct ibrav instead

     activation energy (->) =   2.186072 eV
     activation energy (<-) =   1.820215 eV

     image        energy (eV)        error (eV/A)        frozen

         1    -133597.1230833            0.324149            F
         2    -133595.7139095            0.803549            F
         3    -133594.9370109            0.387147            F
         4    -133595.8968617            0.757364            F
         5    -133596.7572255            0.453492            F

     path length          =  9.063 bohr
     inter-image distance =  2.266 bohr

     ------------------------------ iteration  66 ------------------------------

     tcpu =  10568.1    self-consistency for image   1
     Message from routine setup:
     using ibrav=0 with symmetry is DISCOURAGED, use correct ibrav instead
     tcpu =  10609.5    self-consistency for image   2
     tcpu =  10654.8    self-consistency for image   3
     tcpu =  10700.3    self-consistency for image   4
     tcpu =  10755.1    self-consistency for image   5
     Message from routine setup:
     using ibrav=0 with symmetry is DISCOURAGED, use correct ibrav instead

     activation energy (->) =   2.157029 eV
     activation energy (<-) =   1.815460 eV

     image        energy (eV)        error (eV/A)        frozen

         1    -133597.1390905            0.317989            F
         2    -133595.7341256            0.758205            F
         3    -133594.9820611            0.380785            F
         4    -133595.9248311            0.733338            F
         5    -133596.7975210            0.444639            F

     path length          =  9.084 bohr
     inter-image distance =  2.271 bohr

     ------------------------------ iteration  67 ------------------------------

     tcpu =  10797.6    self-consistency for image   1
     Message from routine setup:
     using ibrav=0 with symmetry is DISCOURAGED, use correct ibrav instead
     tcpu =  10838.3    self-consistency for image   2
     tcpu =  10881.8    self-consistency for image   3
     tcpu =  10925.6    self-consistency for image   4
     tcpu =  10969.0    self-consistency for image   5
     Message from routine setup:
     using ibrav=0 with symmetry is DISCOURAGED, use correct ibrav instead

     activation energy (->) =   2.140324 eV
     activation energy (<-) =   1.813018 eV

     image        energy (eV)        error (eV/A)        frozen

         1    -133597.1483642            0.315071            F
         2    -133595.7457433            0.730305            F
         3    -133595.0080403            0.401104            F
         4    -133595.9408835            0.718976            F
         5    -133596.8210587            0.441825            F

     path length          =  9.098 bohr
     inter-image distance =  2.274 bohr

     ------------------------------ iteration  68 ------------------------------

     tcpu =  11007.9    self-consistency for image   1
     Message from routine setup:
     using ibrav=0 with symmetry is DISCOURAGED, use correct ibrav instead
     tcpu =  11031.7    self-consistency for image   2
     tcpu =  11059.1    self-consistency for image   3
     tcpu =  11092.8    self-consistency for image   4
     tcpu =  11120.1    self-consistency for image   5
     Message from routine setup:
     using ibrav=0 with symmetry is DISCOURAGED, use correct ibrav instead

     activation energy (->) =   2.138636 eV
     activation energy (<-) =   1.812796 eV

     image        energy (eV)        error (eV/A)        frozen

         1    -133597.1493225            0.312927            F
         2    -133595.7469585            0.727964            F
         3    -133595.0106863            0.403219            F
         4    -133595.9425208            0.718682            F
         5    -133596.8234824            0.441622            F

     path length          =  9.099 bohr
     inter-image distance =  2.275 bohr

     ------------------------------ iteration  69 ------------------------------

     tcpu =  11141.6    self-consistency for image   1
     Message from routine setup:
     using ibrav=0 with symmetry is DISCOURAGED, use correct ibrav instead
     tcpu =  11158.8    self-consistency for image   2
     tcpu =  11179.0    self-consistency for image   3
     tcpu =  11195.7    self-consistency for image   4
     tcpu =  11217.5    self-consistency for image   5
     Message from routine setup:
     using ibrav=0 with symmetry is DISCOURAGED, use correct ibrav instead

     activation energy (->) =   2.138031 eV
     activation energy (<-) =   1.812722 eV

     image        energy (eV)        error (eV/A)        frozen

         1    -133597.1496692            0.304609            F
         2    -133595.7474049            0.707382            F
         3    -133595.0116382            0.403240            F
         4    -133595.9430906            0.696928            F
         5    -133596.8243600            0.433288            F

     path length          =  9.099 bohr
     inter-image distance =  2.275 bohr

     ------------------------------ iteration  70 ------------------------------

     tcpu =  11233.6    self-consistency for image   1
     Message from routine setup:
     using ibrav=0 with symmetry is DISCOURAGED, use correct ibrav instead
     tcpu =  11251.8    self-consistency for image   2
     tcpu =  11271.6    self-consistency for image   3
[...]

         1    -133601.1117033            0.051959            F
         2    -133599.3395571            0.161979            F
         3    -133600.0698428            0.332653            F
         4    -133599.8422030            0.305467            F
         5    -133600.3451330            0.100092            F

     path length          = 30.535 bohr
     inter-image distance =  7.634 bohr

     ------------------------------ iteration 984 ------------------------------

     tcpu = 142199.0    self-consistency for image   1
     Message from routine setup:
     using ibrav=0 with symmetry is DISCOURAGED, use correct ibrav instead
     tcpu = 142223.5    self-consistency for image   2
     tcpu = 142248.4    self-consistency for image   3
     tcpu = 142274.2    self-consistency for image   4
     tcpu = 142302.6    self-consistency for image   5
     Message from routine setup:
     using ibrav=0 with symmetry is DISCOURAGED, use correct ibrav instead

     activation energy (->) =   1.771332 eV
     activation energy (<-) =   1.004761 eV

     image        energy (eV)        error (eV/A)        frozen

         1    -133601.1118419            0.052828            F
         2    -133599.3405096            0.171935            F
         3    -133600.0712688            0.333090            F
         4    -133599.8433918            0.305808            F
         5    -133600.3452709            0.112256            F

     path length          = 30.543 bohr
     inter-image distance =  7.636 bohr

     ------------------------------ iteration 985 ------------------------------

     tcpu = 142327.9    self-consistency for image   1
     Message from routine setup:
     using ibrav=0 with symmetry is DISCOURAGED, use correct ibrav instead
     tcpu = 142368.5    self-consistency for image   2
     tcpu = 142404.4    self-consistency for image   3
     tcpu = 142439.2    self-consistency for image   4
     tcpu = 142476.1    self-consistency for image   5
     Message from routine setup:
     using ibrav=0 with symmetry is DISCOURAGED, use correct ibrav instead

     activation energy (->) =   1.768211 eV
     activation energy (<-) =   1.001677 eV

     image        energy (eV)        error (eV/A)        frozen

         1    -133601.1123717            0.052258            F
         2    -133599.3441607            0.171330            F
         3    -133600.0768420            0.332284            F
         4    -133599.8480435            0.303966            F
         5    -133600.3458374            0.110174            F

     path length          = 30.574 bohr
     inter-image distance =  7.644 bohr

     ------------------------------ iteration 986 ------------------------------

     tcpu = 142517.3    self-consistency for image   1
     Message from routine setup:
     using ibrav=0 with symmetry is DISCOURAGED, use correct ibrav instead
     tcpu = 142548.9    self-consistency for image   2
     tcpu = 142575.2    self-consistency for image   3
     tcpu = 142606.5    self-consistency for image   4
     tcpu = 142644.6    self-consistency for image   5
     Message from routine setup:
     using ibrav=0 with symmetry is DISCOURAGED, use correct ibrav instead

     activation energy (->) =   1.766559 eV
     activation energy (<-) =   1.000039 eV

     image        energy (eV)        error (eV/A)        frozen

         1    -133601.1126535            0.052447            F
         2    -133599.3460944            0.172931            F
         3    -133600.0797870            0.331505            F
         4    -133599.8505074            0.305683            F
         5    -133600.3461332            0.111065            F

     path length          = 30.591 bohr
     inter-image distance =  7.648 bohr

     ------------------------------ iteration 987 ------------------------------

     tcpu = 142678.8    self-consistency for image   1
     Message from routine setup:
     using ibrav=0 with symmetry is DISCOURAGED, use correct ibrav instead
     tcpu = 142704.4    self-consistency for image   2
     tcpu = 142726.9    self-consistency for image   3
     tcpu = 142751.7    self-consistency for image   4
     tcpu = 142781.8    self-consistency for image   5
     Message from routine setup:
     using ibrav=0 with symmetry is DISCOURAGED, use correct ibrav instead

     activation energy (->) =   1.765546 eV
     activation energy (<-) =   0.999044 eV

     image        energy (eV)        error (eV/A)        frozen

         1    -133601.1128178            0.052799            F
         2    -133599.3472721            0.173471            F
         3    -133600.0815732            0.331874            F
         4    -133599.8520150            0.305315            F
         5    -133600.3463158            0.110658            F

     path length          = 30.601 bohr
     inter-image distance =  7.650 bohr

     ------------------------------ iteration 988 ------------------------------

     tcpu = 142813.1    self-consistency for image   1
     Message from routine setup:
     using ibrav=0 with symmetry is DISCOURAGED, use correct ibrav instead
     tcpu = 142834.1    self-consistency for image   2
     tcpu = 142853.8    self-consistency for image   3
     tcpu = 142871.2    self-consistency for image   4
     tcpu = 142893.7    self-consistency for image   5
     Message from routine setup:
     using ibrav=0 with symmetry is DISCOURAGED, use correct ibrav instead

     activation energy (->) =   1.765176 eV
     activation energy (<-) =   0.998664 eV

     image        energy (eV)        error (eV/A)        frozen

         1    -133601.1128860            0.052112            F
         2    -133599.3477098            0.171278            F
         3    -133600.0822239            0.330354            F
         4    -133599.8525605            0.306514            F
         5    -133600.3463737            0.098841            F

     path length          = 30.605 bohr
     inter-image distance =  7.651 bohr

     ------------------------------ iteration 989 ------------------------------

     tcpu = 142911.3    self-consistency for image   1
     Message from routine setup:
     using ibrav=0 with symmetry is DISCOURAGED, use correct ibrav instead
     tcpu = 142928.2    self-consistency for image   2
     tcpu = 142943.9    self-consistency for image   3
     tcpu = 142959.9    self-consistency for image   4
     tcpu = 142975.9    self-consistency for image   5
     Message from routine setup:
     using ibrav=0 with symmetry is DISCOURAGED, use correct ibrav instead

     activation energy (->) =   1.765080 eV
     activation energy (<-) =   0.998578 eV

     image        energy (eV)        error (eV/A)        frozen

         1    -133601.1129013            0.050815            F
         2    -133599.3478208            0.170278            F
         3    -133600.0823891            0.331009            F
         4    -133599.8527029            0.301817            F
         5    -133600.3463989            0.109820            F

     path length          = 30.606 bohr
     inter-image distance =  7.651 bohr

     ------------------------------ iteration 990 ------------------------------

     tcpu = 142993.3    self-consistency for image   1
     Message from routine setup:
     using ibrav=0 with symmetry is DISCOURAGED, use correct ibrav instead
     tcpu = 143009.9    self-consistency for image   2
     tcpu = 143026.3    self-consistency for image   3
     tcpu = 143042.8    self-consistency for image   4
     tcpu = 143063.9    self-consistency for image   5
     Message from routine setup:
     using ibrav=0 with symmetry is DISCOURAGED, use correct ibrav instead

     activation energy (->) =   1.764890 eV
     activation energy (<-) =   0.998402 eV

     image        energy (eV)        error (eV/A)        frozen

         1    -133601.1129175            0.048998            F
         2    -133599.3480270            0.166577            F
         3    -133600.0827008            0.330611            F
         4    -133599.8529601            0.304914            F
         5    -133600.3464295            0.104292            F

     path length          = 30.607 bohr
     inter-image distance =  7.652 bohr

     ------------------------------ iteration 991 ------------------------------

     tcpu = 143079.8    self-consistency for image   1
     Message from routine setup:
     using ibrav=0 with symmetry is DISCOURAGED, use correct ibrav instead
     tcpu = 143095.7    self-consistency for image   2
     tcpu = 143115.1    self-consistency for image   3
     tcpu = 143132.6    self-consistency for image   4
     tcpu = 143154.7    self-consistency for image   5
     Message from routine setup:
     using ibrav=0 with symmetry is DISCOURAGED, use correct ibrav instead

     activation energy (->) =   1.764628 eV
     activation energy (<-) =   0.998130 eV

     image        energy (eV)        error (eV/A)        frozen

         1    -133601.1129750            0.048015            F
         2    -133599.3483474            0.163394            F
         3    -133600.0832000            0.330341            F
         4    -133599.8533880            0.306140            F
         5    -133600.3464774            0.100642            F

     path length          = 30.610 bohr
     inter-image distance =  7.653 bohr

     ------------------------------ iteration 992 ------------------------------

     tcpu = 143172.4    self-consistency for image   1
     Message from routine setup:
     using ibrav=0 with symmetry is DISCOURAGED, use correct ibrav instead
     tcpu = 143192.1    self-consistency for image   2
     tcpu = 143215.8    self-consistency for image   3
     tcpu = 143239.3    self-consistency for image   4
     tcpu = 143268.1    self-consistency for image   5
     Message from routine setup:
     using ibrav=0 with symmetry is DISCOURAGED, use correct ibrav instead

     activation energy (->) =   1.763802 eV
     activation energy (<-) =   0.997357 eV

     image        energy (eV)        error (eV/A)        frozen

         1    -133601.1130523            0.051684            F
         2    -133599.3492504            0.173351            F
         3    -133600.0845304            0.330844            F
         4    -133599.8545050            0.306538            F
         5    -133600.3466076            0.112741            F

     path length          = 30.618 bohr
     inter-image distance =  7.654 bohr

     ------------------------------ iteration 993 ------------------------------

     tcpu = 143293.3    self-consistency for image   1
     Message from routine setup:
     using ibrav=0 with symmetry is DISCOURAGED, use correct ibrav instead
     tcpu = 143329.0    self-consistency for image   2
     tcpu = 143365.2    self-consistency for image   3
     tcpu = 143400.6    self-consistency for image   4
     tcpu = 143438.8    self-consistency for image   5
     Message from routine setup:
     using ibrav=0 with symmetry is DISCOURAGED, use correct ibrav instead

     activation energy (->) =   1.760324 eV
     activation energy (<-) =   0.993886 eV

     image        energy (eV)        error (eV/A)        frozen

         1    -133601.1136708            0.052324            F
         2    -133599.3533473            0.172836            F
         3    -133600.0906680            0.330021            F
         4    -133599.8597008            0.305619            F
         5    -133600.3472338            0.109335            F

     path length          = 30.652 bohr
     inter-image distance =  7.663 bohr

     ------------------------------ iteration 994 ------------------------------

     tcpu = 143480.4    self-consistency for image   1
     Message from routine setup:
     using ibrav=0 with symmetry is DISCOURAGED, use correct ibrav instead
     tcpu = 143510.4    self-consistency for image   2
     tcpu = 143538.7    self-consistency for image   3
     tcpu = 143569.7    self-consistency for image   4
     tcpu = 143607.8    self-consistency for image   5
     Message from routine setup:
     using ibrav=0 with symmetry is DISCOURAGED, use correct ibrav instead

     activation energy (->) =   1.758488 eV
     activation energy (<-) =   0.992073 eV

     image        energy (eV)        error (eV/A)        frozen

         1    -133601.1139763            0.052575            F
         2    -133599.3554882            0.173815            F
         3    -133600.0938595            0.329209            F
         4    -133599.8624116            0.305724            F
         5    -133600.3475610            0.111677            F

     path length          = 30.671 bohr
     inter-image distance =  7.668 bohr

     ------------------------------ iteration 995 ------------------------------

     tcpu = 143642.7    self-consistency for image   1
     Message from routine setup:
     using ibrav=0 with symmetry is DISCOURAGED, use correct ibrav instead
     tcpu = 143669.4    self-consistency for image   2
     tcpu = 143698.6    self-consistency for image   3
     tcpu = 143722.9    self-consistency for image   4
     tcpu = 143752.4    self-consistency for image   5
     Message from routine setup:
     using ibrav=0 with symmetry is DISCOURAGED, use correct ibrav instead

     activation energy (->) =   1.757347 eV
     activation energy (<-) =   0.990945 eV

     image        energy (eV)        error (eV/A)        frozen

         1    -133601.1141660            0.053003            F
         2    -133599.3568189            0.173384            F
         3    -133600.0958374            0.328926            F
         4    -133599.8640885            0.307538            F
         5    -133600.3477636            0.110895            F

     path length          = 30.682 bohr
     inter-image distance =  7.670 bohr

     ------------------------------ iteration 996 ------------------------------

     tcpu = 143784.2    self-consistency for image   1
     Message from routine setup:
     using ibrav=0 with symmetry is DISCOURAGED, use correct ibrav instead
     tcpu = 143805.8    self-consistency for image   2
     tcpu = 143829.1    self-consistency for image   3
     tcpu = 143847.9    self-consistency for image   4
     tcpu = 143871.7    self-consistency for image   5
     Message from routine setup:
     using ibrav=0 with symmetry is DISCOURAGED, use correct ibrav instead

     activation energy (->) =   1.756917 eV
     activation energy (<-) =   0.990503 eV

     image        energy (eV)        error (eV/A)        frozen

         1    -133601.1142415            0.052094            F
         2    -133599.3573242            0.173990            F
         3    -133600.0965712            0.327141            F
         4    -133599.8647235            0.308044            F
         5    -133600.3478268            0.096654            F

     path length          = 30.686 bohr
     inter-image distance =  7.672 bohr

     ------------------------------ iteration 997 ------------------------------

     tcpu = 143891.1    self-consistency for image   1
     Message from routine setup:
     using ibrav=0 with symmetry is DISCOURAGED, use correct ibrav instead
     tcpu = 143906.9    self-consistency for image   2
     tcpu = 143922.6    self-consistency for image   3
     tcpu = 143939.2    self-consistency for image   4
     tcpu = 143955.9    self-consistency for image   5
     Message from routine setup:
     using ibrav=0 with symmetry is DISCOURAGED, use correct ibrav instead

     activation energy (->) =   1.756826 eV
     activation energy (<-) =   0.990422 eV

     image        energy (eV)        error (eV/A)        frozen

         1    -133601.1142565            0.050953            F
         2    -133599.3574310            0.171309            F
         3    -133600.0967357            0.328314            F
         4    -133599.8648627            0.303216            F
         5    -133600.3478533            0.110645            F

     path length          = 30.687 bohr
     inter-image distance =  7.672 bohr

     ------------------------------ iteration 998 ------------------------------

     tcpu = 143971.1    self-consistency for image   1
     Message from routine setup:
     using ibrav=0 with symmetry is DISCOURAGED, use correct ibrav instead
     tcpu = 143987.4    self-consistency for image   2
     tcpu = 144005.1    self-consistency for image   3
     tcpu = 144021.0    self-consistency for image   4
     tcpu = 144042.5    self-consistency for image   5
     Message from routine setup:
     using ibrav=0 with symmetry is DISCOURAGED, use correct ibrav instead

     activation energy (->) =   1.756632 eV
     activation energy (<-) =   0.990247 eV

     image        energy (eV)        error (eV/A)        frozen

         1    -133601.1142716            0.048927            F
         2    -133599.3576391            0.168111            F
         3    -133600.0970456            0.327741            F
         4    -133599.8651193            0.305874            F
         5    -133600.3478856            0.104948            F

     path length          = 30.689 bohr
     inter-image distance =  7.672 bohr

     ------------------------------ iteration 999 ------------------------------

     tcpu = 144060.2    self-consistency for image   1
     Message from routine setup:
     using ibrav=0 with symmetry is DISCOURAGED, use correct ibrav instead
     tcpu = 144076.6    self-consistency for image   2
     tcpu = 144095.3    self-consistency for image   3
     tcpu = 144112.1    self-consistency for image   4
     tcpu = 144135.2    self-consistency for image   5
     Message from routine setup:
     using ibrav=0 with symmetry is DISCOURAGED, use correct ibrav instead

     activation energy (->) =   1.756374 eV
     activation energy (<-) =   0.989978 eV

     image        energy (eV)        error (eV/A)        frozen

         1    -133601.1143310            0.050492            F
         2    -133599.3579570            0.165014            F
         3    -133600.0975275            0.327388            F
         4    -133599.8655412            0.307068            F
         5    -133600.3479347            0.101842            F

     path length          = 30.692 bohr
     inter-image distance =  7.673 bohr

     ------------------------------ iteration *** ------------------------------

     tcpu = 144151.8    self-consistency for image   1
     Message from routine setup:
     using ibrav=0 with symmetry is DISCOURAGED, use correct ibrav instead
     tcpu = 144175.2    self-consistency for image   2
     tcpu = 144199.9    self-consistency for image   3
     tcpu = 144222.3    self-consistency for image   4
     tcpu = 144252.4    self-consistency for image   5
     Message from routine setup:
     using ibrav=0 with symmetry is DISCOURAGED, use correct ibrav instead

     activation energy (->) =   1.755620 eV
     activation energy (<-) =   0.989243 eV

     image        energy (eV)        error (eV/A)        frozen

         1    -133601.1144449            0.052867            F
         2    -133599.3588254            0.174689            F
         3    -133600.0987762            0.328078            F
         4    -133599.8666035            0.307685            F
         5    -133600.3480683            0.111127            F

     path length          = 30.699 bohr
     inter-image distance =  7.675 bohr

     ---------------------------------------------------------------------------


     neb: reached the maximum number of steps
 
     NEB          :   1d15h 4m CPU   1d16h 4m WALL

 
   This run was terminated on:   5:15:16   9Nov2024            

=------------------------------------------------------------------------------=
   JOB DONE.
=------------------------------------------------------------------------------=
