
     Program NEB v.7.2 starts on 22Nov2024 at 19:28:53 

     This program is part of the open-source Quantum ESPRESSO suite
     for quantum simulation of materials; please cite
         "P. Giannozzi et al., J. Phys.:Condens. Matter 21 395502 (2009);
         "P. Giannozzi et al., J. Phys.:Condens. Matter 29 465901 (2017);
         "P. Giannozzi et al., J. Chem. Phys. 152 154105 (2020);
          URL http://www.quantum-espresso.org", 
     in publications or presentations arising from this work. More details at
     http://www.quantum-espresso.org/quote

     Parallel version (MPI), running on    96 processors

     MPI processes distributed on     2 nodes
     156946 MiB available memory on the printing compute node when the environment starts
 

     Parsing file: neb.in
     Reading input from pw_1.in
Warning: card &CELL ignored
Warning: card   CELL_DYNAMICS='BFGS', ignored
Warning: card   PRESS=0.0, ignored
Warning: card   PRESS_CONV_THR=0.5, ignored
Warning: card / ignored
     Reading input from pw_2.in
Warning: card &CELL ignored
Warning: card   CELL_DYNAMICS='BFGS', ignored
Warning: card   PRESS=0.0, ignored
Warning: card   PRESS_CONV_THR=0.5, ignored
Warning: card / ignored

     File ./out/sb2te3.broyden deleted, as requested

     File ./out/sb2te3_1/sb2te3.update deleted, as requested

     File ./out/sb2te3_1/PW.out deleted, as requested

     File ./out/sb2te3_2/sb2te3.update deleted, as requested

     File ./out/sb2te3_2/PW.out deleted, as requested

     File ./out/sb2te3_3/sb2te3.update deleted, as requested

     File ./out/sb2te3_3/PW.out deleted, as requested

     File ./out/sb2te3_4/sb2te3.update deleted, as requested

     File ./out/sb2te3_4/PW.out deleted, as requested

     File ./out/sb2te3_5/sb2te3.update deleted, as requested

     File ./out/sb2te3_5/PW.out deleted, as requested

     File ./out/sb2te3_6/sb2te3.update deleted, as requested

     File ./out/sb2te3_6/PW.out deleted, as requested

     File ./out/sb2te3_7/sb2te3.update deleted, as requested

     File ./out/sb2te3_7/PW.out deleted, as requested

     File ./out/sb2te3_8/sb2te3.update deleted, as requested

     File ./out/sb2te3_8/PW.out deleted, as requested

     File ./out/sb2te3_9/sb2te3.update deleted, as requested

     File ./out/sb2te3_9/PW.out deleted, as requested

     File ./out/sb2te3_10/sb2te3.update deleted, as requested

     File ./out/sb2te3_10/PW.out deleted, as requested

     initial path length           = 12.8753 bohr
     initial inter-image distance  =  1.4306 bohr
 
     string_method                 =    neb
     restart_mode                  =    from_scratch
     opt_scheme                    =    broyden
     num_of_images                 =    10
     nstep_path                    =    1000
     CI_scheme                     =    no-CI
     first_last_opt                =    T
     use_freezing                  =    F
     ds                            =    0.0756 a.u.
     k_max                         =    0.1000 a.u.
     k_min                         =    0.0050 a.u.
     suggested k_max               =  107.9285 a.u.
     suggested k_min               =    5.3964 a.u.
     path_thr                      =    0.0010 eV / A

     ------------------------------ iteration   1 ------------------------------

     tcpu =      1.6    self-consistency for image   1
     Message from routine setup:
     using ibrav=0 with symmetry is DISCOURAGED, use correct ibrav instead
     tcpu =     51.3    self-consistency for image   2
     Message from routine setup:
     using ibrav=0 with symmetry is DISCOURAGED, use correct ibrav instead
     tcpu =    100.8    self-consistency for image   3
     Message from routine setup:
     using ibrav=0 with symmetry is DISCOURAGED, use correct ibrav instead
     tcpu =    146.6    self-consistency for image   4
     Message from routine setup:
     using ibrav=0 with symmetry is DISCOURAGED, use correct ibrav instead
     tcpu =    200.5    self-consistency for image   5
     Message from routine setup:
     using ibrav=0 with symmetry is DISCOURAGED, use correct ibrav instead
     tcpu =    251.4    self-consistency for image   6
     Message from routine setup:
     using ibrav=0 with symmetry is DISCOURAGED, use correct ibrav instead
     tcpu =    298.1    self-consistency for image   7
     Message from routine setup:
     using ibrav=0 with symmetry is DISCOURAGED, use correct ibrav instead
     tcpu =    345.5    self-consistency for image   8
     Message from routine setup:
     using ibrav=0 with symmetry is DISCOURAGED, use correct ibrav instead
     tcpu =    397.7    self-consistency for image   9
     Message from routine setup:
     using ibrav=0 with symmetry is DISCOURAGED, use correct ibrav instead
     tcpu =    458.7    self-consistency for image  10
     Message from routine setup:
     using ibrav=0 with symmetry is DISCOURAGED, use correct ibrav instead

     activation energy (->) = ********** eV
     activation energy (<-) = ********** eV

     image        energy (eV)        error (eV/A)        frozen

         1    -133598.2876503            0.569343            F
         2    -133586.2745681           53.657081            F
         3    -133245.9535295          **********            F
         4    -109382.0925023          **********            F
         5    -132548.6979094          **********            F
         6    -133562.1984540          138.092509            F
         7    -133594.5241198            5.183460            F
         8    -133594.4531365            1.507097            F
         9    -133595.0703638            1.199683            F
        10    -133595.4110739            0.757131            F

     path length          = 12.875 bohr
     inter-image distance =  1.431 bohr

     ------------------------------ iteration   2 ------------------------------

     tcpu =    507.1    self-consistency for image   1
     Message from routine setup:
     using ibrav=0 with symmetry is DISCOURAGED, use correct ibrav instead
     tcpu =    521.9    self-consistency for image   2
     Message from routine setup:
     using ibrav=0 with symmetry is DISCOURAGED, use correct ibrav instead
     tcpu =    541.8    self-consistency for image   3
     Message from routine setup:
     using ibrav=0 with symmetry is DISCOURAGED, use correct ibrav instead
     tcpu =    566.5    self-consistency for image   4
     Message from routine setup:
     using ibrav=0 with symmetry is DISCOURAGED, use correct ibrav instead
     tcpu =    653.2    self-consistency for image   5
     Message from routine setup:
     using ibrav=0 with symmetry is DISCOURAGED, use correct ibrav instead
     tcpu =    694.4    self-consistency for image   6
     Message from routine setup:
     using ibrav=0 with symmetry is DISCOURAGED, use correct ibrav instead
     tcpu =    715.5    self-consistency for image   7
     Message from routine setup:
     using ibrav=0 with symmetry is DISCOURAGED, use correct ibrav instead
     tcpu =    729.1    self-consistency for image   8
     Message from routine setup:
     using ibrav=0 with symmetry is DISCOURAGED, use correct ibrav instead
     tcpu =    746.2    self-consistency for image   9
     Message from routine setup:
     using ibrav=0 with symmetry is DISCOURAGED, use correct ibrav instead
     tcpu =    758.8    self-consistency for image  10
     Message from routine setup:
     using ibrav=0 with symmetry is DISCOURAGED, use correct ibrav instead

     activation energy (->) = ********** eV
     activation energy (<-) = ********** eV

     image        energy (eV)        error (eV/A)        frozen

         1    -133598.2876573            0.570330            F
         2    -133586.2781561           53.782212            F
         3    -133249.3824787          **********            F
         4    -130436.5011482          **********            F
         5    -132579.4334419          **********            F
         6    -133562.2225745          139.104951            F
         7    -133594.5241707            5.186723            F
         8    -133594.4531658            1.506883            F
         9    -133595.0703863            1.198995            F
        10    -133595.4110876            0.757294            F

     path length          = 13.120 bohr
     inter-image distance =  1.458 bohr

     ------------------------------ iteration   3 ------------------------------

     tcpu =    771.4    self-consistency for image   1
     Message from routine setup:
     using ibrav=0 with symmetry is DISCOURAGED, use correct ibrav instead
     tcpu =    784.8    self-consistency for image   2
     Message from routine setup:
     using ibrav=0 with symmetry is DISCOURAGED, use correct ibrav instead
     tcpu =    809.6    self-consistency for image   3
     Message from routine setup:
     using ibrav=0 with symmetry is DISCOURAGED, use correct ibrav instead
     tcpu =    855.9    self-consistency for image   4
     Message from routine setup:
     using ibrav=0 with symmetry is DISCOURAGED, use correct ibrav instead
     tcpu =    941.2    self-consistency for image   5
     Message from routine setup:
     using ibrav=0 with symmetry is DISCOURAGED, use correct ibrav instead
     tcpu =   1001.4    self-consistency for image   6
     Message from routine setup:
     using ibrav=0 with symmetry is DISCOURAGED, use correct ibrav instead
     tcpu =   1042.3    self-consistency for image   7
     Message from routine setup:
     using ibrav=0 with symmetry is DISCOURAGED, use correct ibrav instead
     tcpu =   1058.8    self-consistency for image   8
     Message from routine setup:
     using ibrav=0 with symmetry is DISCOURAGED, use correct ibrav instead
     tcpu =   1075.6    self-consistency for image   9
     Message from routine setup:
     using ibrav=0 with symmetry is DISCOURAGED, use correct ibrav instead
     tcpu =   1092.2    self-consistency for image  10
     Message from routine setup:
     using ibrav=0 with symmetry is DISCOURAGED, use correct ibrav instead

     activation energy (->) = 888.399708 eV
     activation energy (<-) = 885.523348 eV

     image        energy (eV)        error (eV/A)        frozen

         1    -133598.2876817            0.568354            F
         2    -133586.3406117           56.496694            F
         3    -133335.5725755          **********            F
         4    -132817.6866054           65.125313            F
         5    -132709.8879736          392.382283            F
         6    -133562.6439214          145.406220            F
         7    -133594.5250782            5.193279            F
         8    -133594.4535835            1.502618            F
         9    -133595.0707376            1.195335            F
        10    -133595.4113217            0.754759            F

     path length          = 13.756 bohr
     inter-image distance =  1.528 bohr

     ------------------------------ iteration   4 ------------------------------

     tcpu =   1110.8    self-consistency for image   1
     Message from routine setup:
     using ibrav=0 with symmetry is DISCOURAGED, use correct ibrav instead
     tcpu =   1125.6    self-consistency for image   2
     Message from routine setup:
     using ibrav=0 with symmetry is DISCOURAGED, use correct ibrav instead
     tcpu =   1160.7    self-consistency for image   3
     Message from routine setup:
     using ibrav=0 with symmetry is DISCOURAGED, use correct ibrav instead
     tcpu =   1214.1    self-consistency for image   4
     Message from routine setup:
     using ibrav=0 with symmetry is DISCOURAGED, use correct ibrav instead
     tcpu =   1255.9    self-consistency for image   5
     Message from routine setup:
     using ibrav=0 with symmetry is DISCOURAGED, use correct ibrav instead
     tcpu =   1312.5    self-consistency for image   6
     Message from routine setup:
     using ibrav=0 with symmetry is DISCOURAGED, use correct ibrav instead
     tcpu =   1360.4    self-consistency for image   7
     Message from routine setup:
     using ibrav=0 with symmetry is DISCOURAGED, use correct ibrav instead
     tcpu =   1376.9    self-consistency for image   8
     Message from routine setup:
     using ibrav=0 with symmetry is DISCOURAGED, use correct ibrav instead
     tcpu =   1393.5    self-consistency for image   9
     Message from routine setup:
     using ibrav=0 with symmetry is DISCOURAGED, use correct ibrav instead
     tcpu =   1410.7    self-consistency for image  10
     Message from routine setup:
     using ibrav=0 with symmetry is DISCOURAGED, use correct ibrav instead

     activation energy (->) = 869.101524 eV
     activation energy (<-) = 866.225768 eV

     image        energy (eV)        error (eV/A)        frozen

         1    -133598.2877753            0.566777            F
         2    -133586.5517394           60.936302            F
         3    -133466.4339431          683.781491            F
         4    -132836.5719114          105.041233            F
         5    -132729.1862510          204.399563            F
         6    -133564.0350904          141.645092            F
         7    -133594.5278488            5.214154            F
         8    -133594.4548666            1.491896            F
         9    -133595.0718160            1.184578            F
        10    -133595.4120186            0.751847            F

     path length          = 13.740 bohr
     inter-image distance =  1.527 bohr

     ------------------------------ iteration   5 ------------------------------

     tcpu =   1427.0    self-consistency for image   1
     Message from routine setup:
     using ibrav=0 with symmetry is DISCOURAGED, use correct ibrav instead
     tcpu =   1444.1    self-consistency for image   2
     Message from routine setup:
     using ibrav=0 with symmetry is DISCOURAGED, use correct ibrav instead
     tcpu =   1481.0    self-consistency for image   3
     Message from routine setup:
     using ibrav=0 with symmetry is DISCOURAGED, use correct ibrav instead
     tcpu =   1536.6    self-consistency for image   4
     Message from routine setup:
     using ibrav=0 with symmetry is DISCOURAGED, use correct ibrav instead
     tcpu =   1582.9    self-consistency for image   5
     Message from routine setup:
     using ibrav=0 with symmetry is DISCOURAGED, use correct ibrav instead
     tcpu =   1638.7    self-consistency for image   6
     Message from routine setup:
     using ibrav=0 with symmetry is DISCOURAGED, use correct ibrav instead
     tcpu =   1689.2    self-consistency for image   7
     Message from routine setup:
     using ibrav=0 with symmetry is DISCOURAGED, use correct ibrav instead
     tcpu =   1707.7    self-consistency for image   8
     Message from routine setup:
     using ibrav=0 with symmetry is DISCOURAGED, use correct ibrav instead
     tcpu =   1724.4    self-consistency for image   9
     Message from routine setup:
     using ibrav=0 with symmetry is DISCOURAGED, use correct ibrav instead
     tcpu =   1741.9    self-consistency for image  10
     Message from routine setup:
     using ibrav=0 with symmetry is DISCOURAGED, use correct ibrav instead

     activation energy (->) = 866.411151 eV
     activation energy (<-) = 863.536274 eV

     image        energy (eV)        error (eV/A)        frozen

         1    -133598.2879176            0.566452            F
         2    -133586.9247813           61.561516            F
         3    -133513.6914554          437.361924            F
         4    -132803.6756820          126.559548            F
         5    -132731.8767662           87.355098            F
         6    -133565.9700523          133.233057            F
         7    -133594.5319737            5.260353            F
         8    -133594.4567504            1.484207            F
         9    -133595.0733995            1.180698            F
        10    -133595.4130404            0.749388            F

     path length          = 13.692 bohr
     inter-image distance =  1.521 bohr

     ------------------------------ iteration   6 ------------------------------

     tcpu =   1758.5    self-consistency for image   1
     Message from routine setup:
     using ibrav=0 with symmetry is DISCOURAGED, use correct ibrav instead
     tcpu =   1775.1    self-consistency for image   2
     Message from routine setup:
     using ibrav=0 with symmetry is DISCOURAGED, use correct ibrav instead
     tcpu =   1814.0    self-consistency for image   3
     Message from routine setup:
     using ibrav=0 with symmetry is DISCOURAGED, use correct ibrav instead
     tcpu =   1867.4    self-consistency for image   4
     Message from routine setup:
     using ibrav=0 with symmetry is DISCOURAGED, use correct ibrav instead
     tcpu =   1930.3    self-consistency for image   5
     Message from routine setup:
     using ibrav=0 with symmetry is DISCOURAGED, use correct ibrav instead
     tcpu =   1974.9    self-consistency for image   6
     Message from routine setup:
     using ibrav=0 with symmetry is DISCOURAGED, use correct ibrav instead
     tcpu =   2029.0    self-consistency for image   7
     Message from routine setup:
     using ibrav=0 with symmetry is DISCOURAGED, use correct ibrav instead
     tcpu =   2048.9    self-consistency for image   8
     Message from routine setup:
     using ibrav=0 with symmetry is DISCOURAGED, use correct ibrav instead
     tcpu =   2065.9    self-consistency for image   9
     Message from routine setup:
     using ibrav=0 with symmetry is DISCOURAGED, use correct ibrav instead
     tcpu =   2086.9    self-consistency for image  10
     Message from routine setup:
     using ibrav=0 with symmetry is DISCOURAGED, use correct ibrav instead

     activation energy (->) = 872.516102 eV
     activation energy (<-) = 869.642764 eV

     image        energy (eV)        error (eV/A)        frozen

         1    -133598.2881492            0.563702            F
         2    -133587.5969061           59.291936            F
         3    -133546.3158581          255.093952            F
         4    -132729.8945634           42.105570            F
         5    -132725.7720474           29.224765            F
         6    -133568.9273003          118.387218            F
         7    -133594.5392052            5.315005            F
         8    -133594.4600285            1.467999            F
         9    -133595.0761579            1.190010            F
        10    -133595.4148117            0.743334            F

     path length          = 13.615 bohr
     inter-image distance =  1.513 bohr

     ------------------------------ iteration   7 ------------------------------

     tcpu =   2103.7    self-consistency for image   1
     Message from routine setup:
     using ibrav=0 with symmetry is DISCOURAGED, use correct ibrav instead
     tcpu =   2120.4    self-consistency for image   2
     Message from routine setup:
     using ibrav=0 with symmetry is DISCOURAGED, use correct ibrav instead
     tcpu =   2163.5    self-consistency for image   3
     Message from routine setup:
     using ibrav=0 with symmetry is DISCOURAGED, use correct ibrav instead
     tcpu =   2225.5    self-consistency for image   4
     Message from routine setup:
     using ibrav=0 with symmetry is DISCOURAGED, use correct ibrav instead
     tcpu =   2275.3    self-consistency for image   5
     Message from routine setup:
     using ibrav=0 with symmetry is DISCOURAGED, use correct ibrav instead
     tcpu =   2322.4    self-consistency for image   6
     Message from routine setup:
     using ibrav=0 with symmetry is DISCOURAGED, use correct ibrav instead
     tcpu =   2376.9    self-consistency for image   7
     Message from routine setup:
     using ibrav=0 with symmetry is DISCOURAGED, use correct ibrav instead
     tcpu =   2399.6    self-consistency for image   8
     Message from routine setup:
     using ibrav=0 with symmetry is DISCOURAGED, use correct ibrav instead
     tcpu =   2417.5    self-consistency for image   9
     Message from routine setup:
     using ibrav=0 with symmetry is DISCOURAGED, use correct ibrav instead
     tcpu =   2440.7    self-consistency for image  10
     Message from routine setup:
     using ibrav=0 with symmetry is DISCOURAGED, use correct ibrav instead

     activation energy (->) = 931.696705 eV
     activation energy (<-) = 928.825771 eV

     image        energy (eV)        error (eV/A)        frozen

         1    -133598.2885081            0.559299            F
         2    -133588.6053193           53.158534            F
         3    -133570.1161010          136.331575            F
         4    -132666.5918034          292.878830            F
         5    -132720.5066226           75.548159            F
         6    -133572.7391729           98.245108            F
         7    -133594.5508071            5.498125            F
         8    -133594.4650780            1.444579            F
         9    -133595.0804920            1.183921            F
        10    -133595.4175746            0.735845            F

     path length          = 13.592 bohr
     inter-image distance =  1.510 bohr

     ------------------------------ iteration   8 ------------------------------

     tcpu =   2457.3    self-consistency for image   1
     Message from routine setup:
     using ibrav=0 with symmetry is DISCOURAGED, use correct ibrav instead
     tcpu =   2474.2    self-consistency for image   2
     Message from routine setup:
     using ibrav=0 with symmetry is DISCOURAGED, use correct ibrav instead
     tcpu =   2517.7    self-consistency for image   3
     Message from routine setup:
     using ibrav=0 with symmetry is DISCOURAGED, use correct ibrav instead
     tcpu =   2576.5    self-consistency for image   4
     Message from routine setup:
     using ibrav=0 with symmetry is DISCOURAGED, use correct ibrav instead
     tcpu =   2617.0    self-consistency for image   5
     Message from routine setup:
     using ibrav=0 with symmetry is DISCOURAGED, use correct ibrav instead
     tcpu =   2675.0    self-consistency for image   6
     Message from routine setup:
     using ibrav=0 with symmetry is DISCOURAGED, use correct ibrav instead
     tcpu =   2724.8    self-consistency for image   7
     Message from routine setup:
     using ibrav=0 with symmetry is DISCOURAGED, use correct ibrav instead
     tcpu =   2748.8    self-consistency for image   8
     Message from routine setup:
     using ibrav=0 with symmetry is DISCOURAGED, use correct ibrav instead
     tcpu =   2766.2    self-consistency for image   9
     Message from routine setup:
     using ibrav=0 with symmetry is DISCOURAGED, use correct ibrav instead
     tcpu =   2789.6    self-consistency for image  10
     Message from routine setup:
     using ibrav=0 with symmetry is DISCOURAGED, use correct ibrav instead

     activation energy (->) = 966.717301 eV
     activation energy (<-) = 963.848622 eV

     image        energy (eV)        error (eV/A)        frozen

         1    -133598.2888469            0.557727            F
         2    -133589.4821957           46.720171            F
         3    -133580.8834587           78.895467            F
         4    -132631.5715456          221.133139            F
         5    -132717.3124154           84.483847            F
         6    -133575.5721249           84.473604            F
         7    -133594.5618568            5.562355            F
         8    -133594.4699036            1.446133            F
         9    -133595.0845609            1.178155            F
        10    -133595.4201677            0.736487            F

     path length          = 13.703 bohr
     inter-image distance =  1.523 bohr

     ------------------------------ iteration   9 ------------------------------

     tcpu =   2807.3    self-consistency for image   1
     Message from routine setup:
     using ibrav=0 with symmetry is DISCOURAGED, use correct ibrav instead
     tcpu =   2815.8    self-consistency for image   2
     Message from routine setup:
     using ibrav=0 with symmetry is DISCOURAGED, use correct ibrav instead
     tcpu =   2835.9    self-consistency for image   3
     Message from routine setup:
     using ibrav=0 with symmetry is DISCOURAGED, use correct ibrav instead
     tcpu =   2881.3    self-consistency for image   4
     Message from routine setup:
     using ibrav=0 with symmetry is DISCOURAGED, use correct ibrav instead
     tcpu =   2927.9    self-consistency for image   5
     Message from routine setup:
     using ibrav=0 with symmetry is DISCOURAGED, use correct ibrav instead
     tcpu =   2969.9    self-consistency for image   6
     Message from routine setup:
     using ibrav=0 with symmetry is DISCOURAGED, use correct ibrav instead
     tcpu =   3001.4    self-consistency for image   7
     Message from routine setup:
     using ibrav=0 with symmetry is DISCOURAGED, use correct ibrav instead
     tcpu =   3017.8    self-consistency for image   8
     Message from routine setup:
     using ibrav=0 with symmetry is DISCOURAGED, use correct ibrav instead
     tcpu =   3031.4    self-consistency for image   9
     Message from routine setup:
     using ibrav=0 with symmetry is DISCOURAGED, use correct ibrav instead
     tcpu =   3044.1    self-consistency for image  10
     Message from routine setup:
     using ibrav=0 with symmetry is DISCOURAGED, use correct ibrav instead

     activation energy (->) = 952.835337 eV
     activation energy (<-) = 949.966705 eV

     image        energy (eV)        error (eV/A)        frozen

         1    -133598.2888527            0.559333            F
         2    -133589.5039247           47.107949            F
         3    -133579.4499795           87.374314            F
         4    -132645.4535154          143.876030            F
         5    -132718.1232880          122.034564            F
         6    -133575.4456655           84.464814            F
         7    -133594.5623218            5.551941            F
         8    -133594.4700368            1.490826            F
         9    -133595.0846545            1.177304            F
        10    -133595.4202207            0.754621            F

     path length          = 13.704 bohr
     inter-image distance =  1.523 bohr

     ------------------------------ iteration  10 ------------------------------

     tcpu =   3055.9    self-consistency for image   1
     Message from routine setup:
     using ibrav=0 with symmetry is DISCOURAGED, use correct ibrav instead
     tcpu =   3073.2    self-consistency for image   2
     Message from routine setup:
     using ibrav=0 with symmetry is DISCOURAGED, use correct ibrav instead
     tcpu =   3108.3    self-consistency for image   3
     Message from routine setup:
     using ibrav=0 with symmetry is DISCOURAGED, use correct ibrav instead
     tcpu =   3144.4    self-consistency for image   4
     Message from routine setup:
     using ibrav=0 with symmetry is DISCOURAGED, use correct ibrav instead
     tcpu =   3201.4    self-consistency for image   5
     Message from routine setup:
     using ibrav=0 with symmetry is DISCOURAGED, use correct ibrav instead
     tcpu =   3251.2    self-consistency for image   6
     Message from routine setup:
     using ibrav=0 with symmetry is DISCOURAGED, use correct ibrav instead
     tcpu =   3299.7    self-consistency for image   7
     Message from routine setup:
     using ibrav=0 with symmetry is DISCOURAGED, use correct ibrav instead
     tcpu =   3319.8    self-consistency for image   8
     Message from routine setup:
     using ibrav=0 with symmetry is DISCOURAGED, use correct ibrav instead
     tcpu =   3339.2    self-consistency for image   9
     Message from routine setup:
     using ibrav=0 with symmetry is DISCOURAGED, use correct ibrav instead
     tcpu =   3357.1    self-consistency for image  10
     Message from routine setup:
     using ibrav=0 with symmetry is DISCOURAGED, use correct ibrav instead

     activation energy (->) = 944.631185 eV
     activation energy (<-) = 941.763538 eV

     image        energy (eV)        error (eV/A)        frozen

         1    -133598.2890024            0.557203            F
         2    -133589.8514928           45.588855            F
         3    -133579.5356130           87.948470            F
         4    -132653.6578178          113.009727            F
         5    -132720.5241234          139.360324            F
         6    -133576.1232575           79.111548            F
         7    -133594.5674072            5.506084            F
         8    -133594.4721299            1.488334            F
         9    -133595.0863761            1.155835            F
        10    -133595.4213559            0.741856            F

     path length          = 13.712 bohr
     inter-image distance =  1.524 bohr

     ------------------------------ iteration  11 ------------------------------

     tcpu =   3375.0    self-consistency for image   1
     Message from routine setup:
     using ibrav=0 with symmetry is DISCOURAGED, use correct ibrav instead
     tcpu =   3392.2    self-consistency for image   2
     Message from routine setup:
     using ibrav=0 with symmetry is DISCOURAGED, use correct ibrav instead
     tcpu =   3436.0    self-consistency for image   3
     Message from routine setup:
     using ibrav=0 with symmetry is DISCOURAGED, use correct ibrav instead
     tcpu =   3486.0    self-consistency for image   4
     Message from routine setup:
     using ibrav=0 with symmetry is DISCOURAGED, use correct ibrav instead
     tcpu =   3558.2    self-consistency for image   5
     Message from routine setup:
     using ibrav=0 with symmetry is DISCOURAGED, use correct ibrav instead
     tcpu =   3630.5    self-consistency for image   6
     Message from routine setup:
     using ibrav=0 with symmetry is DISCOURAGED, use correct ibrav instead
     tcpu =   3686.8    self-consistency for image   7
     Message from routine setup:
     using ibrav=0 with symmetry is DISCOURAGED, use correct ibrav instead
     tcpu =   3719.4    self-consistency for image   8
     Message from routine setup:
     using ibrav=0 with symmetry is DISCOURAGED, use correct ibrav instead
     tcpu =   3743.2    self-consistency for image   9
     Message from routine setup:
     using ibrav=0 with symmetry is DISCOURAGED, use correct ibrav instead
     tcpu =   3772.6    self-consistency for image  10
     Message from routine setup:
     using ibrav=0 with symmetry is DISCOURAGED, use correct ibrav instead

     activation energy (->) = 917.566814 eV
     activation energy (<-) = 914.705109 eV

     image        energy (eV)        error (eV/A)        frozen

         1    -133598.2898712            0.545190            F
         2    -133591.6860086           36.775391            F
         3    -133582.4261999           76.160654            F
         4    -132680.7230569           93.690306            F
         5    -132735.5367691          140.243829            F
         6    -133579.8350397           48.441322            F
         7    -133594.5980379            5.553682            F
         8    -133594.4847908            1.478578            F
         9    -133595.0968335            1.160646            F
        10    -133595.4281655            0.750591            F

     path length          = 13.785 bohr
     inter-image distance =  1.532 bohr

     ------------------------------ iteration  12 ------------------------------

     tcpu =   3796.5    self-consistency for image   1
     Message from routine setup:
     using ibrav=0 with symmetry is DISCOURAGED, use correct ibrav instead
     tcpu =   3815.3    self-consistency for image   2
     Message from routine setup:
     using ibrav=0 with symmetry is DISCOURAGED, use correct ibrav instead
     tcpu =   3866.9    self-consistency for image   3
     Message from routine setup:
     using ibrav=0 with symmetry is DISCOURAGED, use correct ibrav instead
     tcpu =   3918.1    self-consistency for image   4
     Message from routine setup:
     using ibrav=0 with symmetry is DISCOURAGED, use correct ibrav instead
     tcpu =   3996.3    self-consistency for image   5
     Message from routine setup:
     using ibrav=0 with symmetry is DISCOURAGED, use correct ibrav instead
     tcpu =   4079.3    self-consistency for image   6
     Message from routine setup:
     using ibrav=0 with symmetry is DISCOURAGED, use correct ibrav instead
     tcpu =   4136.6    self-consistency for image   7
     Message from routine setup:
     using ibrav=0 with symmetry is DISCOURAGED, use correct ibrav instead
     tcpu =   4170.7    self-consistency for image   8
     Message from routine setup:
     using ibrav=0 with symmetry is DISCOURAGED, use correct ibrav instead
     tcpu =   4199.6    self-consistency for image   9
     Message from routine setup:
     using ibrav=0 with symmetry is DISCOURAGED, use correct ibrav instead
     tcpu =   4228.6    self-consistency for image  10
     Message from routine setup:
     using ibrav=0 with symmetry is DISCOURAGED, use correct ibrav instead

     activation energy (->) = 877.948366 eV
     activation energy (<-) = 875.095791 eV

     image        energy (eV)        error (eV/A)        frozen

         1    -133598.2911929            0.529724            F
         2    -133593.7955217           26.433153            F
         3    -133585.9298091           60.797461            F
         4    -132720.3428273           66.021572            F
         5    -132758.2773831          123.918537            F
         6    -133584.0142841           10.902624            F
         7    -133594.6442651            5.435874            F
         8    -133594.5042049            1.460454            F
         9    -133595.1127840            1.139145            F
        10    -133595.4386183            0.747680            F

     path length          = 14.040 bohr
     inter-image distance =  1.560 bohr

     ------------------------------ iteration  13 ------------------------------

     tcpu =   4254.3    self-consistency for image   1
     Message from routine setup:
     using ibrav=0 with symmetry is DISCOURAGED, use correct ibrav instead
     tcpu =   4278.1    self-consistency for image   2
     Message from routine setup:
     using ibrav=0 with symmetry is DISCOURAGED, use correct ibrav instead
     tcpu =   4331.1    self-consistency for image   3
     Message from routine setup:
     using ibrav=0 with symmetry is DISCOURAGED, use correct ibrav instead
     tcpu =   4389.8    self-consistency for image   4
     Message from routine setup:
     using ibrav=0 with symmetry is DISCOURAGED, use correct ibrav instead
     tcpu =   4466.6    self-consistency for image   5
     Message from routine setup:
     using ibrav=0 with symmetry is DISCOURAGED, use correct ibrav instead
     tcpu =   4544.9    self-consistency for image   6
     Message from routine setup:
     using ibrav=0 with symmetry is DISCOURAGED, use correct ibrav instead
     tcpu =   4607.5    self-consistency for image   7
     Message from routine setup:
     using ibrav=0 with symmetry is DISCOURAGED, use correct ibrav instead
     tcpu =   4641.8    self-consistency for image   8
     Message from routine setup:
     using ibrav=0 with symmetry is DISCOURAGED, use correct ibrav instead
     tcpu =   4670.2    self-consistency for image   9
     Message from routine setup:
     using ibrav=0 with symmetry is DISCOURAGED, use correct ibrav instead
     tcpu =   4700.7    self-consistency for image  10
     Message from routine setup:
     using ibrav=0 with symmetry is DISCOURAGED, use correct ibrav instead

     activation energy (->) = 840.538247 eV
     activation energy (<-) = 837.694808 eV

     image        energy (eV)        error (eV/A)        frozen

         1    -133598.2925699            0.525965            F
         2    -133595.2911140           18.715571            F
         3    -133588.6611447           48.076096            F
         4    -132757.7543225           29.173611            F
         5    -132780.2550027          100.435186            F
         6    -133587.0499255            6.609181            F
         7    -133594.6897503            5.225644            F
         8    -133594.5236986            1.441638            F
         9    -133595.1287663            1.117259            F
        10    -133595.4491303            0.743776            F

     path length          = 14.504 bohr
     inter-image distance =  1.612 bohr

     ------------------------------ iteration  14 ------------------------------

     tcpu =   4727.0    self-consistency for image   1
     Message from routine setup:
     using ibrav=0 with symmetry is DISCOURAGED, use correct ibrav instead
     tcpu =   4751.8    self-consistency for image   2
     Message from routine setup:
     using ibrav=0 with symmetry is DISCOURAGED, use correct ibrav instead
     tcpu =   4805.3    self-consistency for image   3
     Message from routine setup:
     using ibrav=0 with symmetry is DISCOURAGED, use correct ibrav instead
     tcpu =   4862.4    self-consistency for image   4
     Message from routine setup:
     using ibrav=0 with symmetry is DISCOURAGED, use correct ibrav instead
     tcpu =   4937.9    self-consistency for image   5
     Message from routine setup:
     using ibrav=0 with symmetry is DISCOURAGED, use correct ibrav instead
     tcpu =   5020.8    self-consistency for image   6
     Message from routine setup:
     using ibrav=0 with symmetry is DISCOURAGED, use correct ibrav instead
     tcpu =   5073.7    self-consistency for image   7
     Message from routine setup:
     using ibrav=0 with symmetry is DISCOURAGED, use correct ibrav instead
     tcpu =   5109.5    self-consistency for image   8
     Message from routine setup:
     using ibrav=0 with symmetry is DISCOURAGED, use correct ibrav instead
     tcpu =   5139.1    self-consistency for image   9
     Message from routine setup:
     using ibrav=0 with symmetry is DISCOURAGED, use correct ibrav instead
     tcpu =   5168.3    self-consistency for image  10
     Message from routine setup:
     using ibrav=0 with symmetry is DISCOURAGED, use correct ibrav instead

     activation energy (->) = 806.011654 eV
     activation energy (<-) = 803.177635 eV

     image        energy (eV)        error (eV/A)        frozen

         1    -133598.2939475            0.513550            F
         2    -133596.3325331           12.882001            F
         3    -133590.8323742           37.537037            F
         4    -132792.2822935            3.301972            F
         5    -132801.3269199           55.803164            F
         6    -133589.2822186           16.202931            F
         7    -133594.7355360            4.951131            F
         8    -133594.5437227            1.422769            F
         9    -133595.1450938            1.096183            F
        10    -133595.4599281            0.740471            F

     path length          = 15.147 bohr
     inter-image distance =  1.683 bohr

     ------------------------------ iteration  15 ------------------------------

     tcpu =   5194.2    self-consistency for image   1
     Message from routine setup:
     using ibrav=0 with symmetry is DISCOURAGED, use correct ibrav instead
     tcpu =   5212.0    self-consistency for image   2
     Message from routine setup:
     using ibrav=0 with symmetry is DISCOURAGED, use correct ibrav instead
     tcpu =   5246.3    self-consistency for image   3
     Message from routine setup:
     using ibrav=0 with symmetry is DISCOURAGED, use correct ibrav instead
     tcpu =   5283.1    self-consistency for image   4
     Message from routine setup:
     using ibrav=0 with symmetry is DISCOURAGED, use correct ibrav instead
     tcpu =   5328.0    self-consistency for image   5
     Message from routine setup:
     using ibrav=0 with symmetry is DISCOURAGED, use correct ibrav instead
     tcpu =   5378.9    self-consistency for image   6
     Message from routine setup:
     using ibrav=0 with symmetry is DISCOURAGED, use correct ibrav instead
     tcpu =   5425.5    self-consistency for image   7
     Message from routine setup:
     using ibrav=0 with symmetry is DISCOURAGED, use correct ibrav instead
     tcpu =   5447.7    self-consistency for image   8
     Message from routine setup:
     using ibrav=0 with symmetry is DISCOURAGED, use correct ibrav instead
     tcpu =   5465.3    self-consistency for image   9
     Message from routine setup:
     using ibrav=0 with symmetry is DISCOURAGED, use correct ibrav instead
     tcpu =   5485.2    self-consistency for image  10
     Message from routine setup:
     using ibrav=0 with symmetry is DISCOURAGED, use correct ibrav instead

     activation energy (->) = 802.181294 eV
     activation energy (<-) = 799.348979 eV

     image        energy (eV)        error (eV/A)        frozen

         1    -133598.2942000            0.511026            F
         2    -133596.4484830           12.183716            F
         3    -133591.1423957           35.960981            F
         4    -132796.1129060           14.844094            F
         5    -132803.2948708           33.081355            F
         6    -133589.5304575           16.936588            F
         7    -133594.7438726            4.902322            F
         8    -133594.5472962            1.380238            F
         9    -133595.1480313            1.090828            F
        10    -133595.4618847            0.720891            F

     path length          = 15.238 bohr
     inter-image distance =  1.693 bohr

     ------------------------------ iteration  16 ------------------------------

     tcpu =   5502.5    self-consistency for image   1
     Message from routine setup:
     using ibrav=0 with symmetry is DISCOURAGED, use correct ibrav instead
     tcpu =   5518.8    self-consistency for image   2
     Message from routine setup:
     using ibrav=0 with symmetry is DISCOURAGED, use correct ibrav instead
     tcpu =   5551.6    self-consistency for image   3
     Message from routine setup:
     using ibrav=0 with symmetry is DISCOURAGED, use correct ibrav instead
     tcpu =   5592.9    self-consistency for image   4
     Message from routine setup:
     using ibrav=0 with symmetry is DISCOURAGED, use correct ibrav instead
     tcpu =   5633.3    self-consistency for image   5
     Message from routine setup:
     using ibrav=0 with symmetry is DISCOURAGED, use correct ibrav instead
     tcpu =   5681.5    self-consistency for image   6
     Message from routine setup:
     using ibrav=0 with symmetry is DISCOURAGED, use correct ibrav instead
     tcpu =   5716.2    self-consistency for image   7
     Message from routine setup:
     using ibrav=0 with symmetry is DISCOURAGED, use correct ibrav instead
     tcpu =   5738.6    self-consistency for image   8
     Message from routine setup:
     using ibrav=0 with symmetry is DISCOURAGED, use correct ibrav instead
     tcpu =   5756.1    self-consistency for image   9
     Message from routine setup:
     using ibrav=0 with symmetry is DISCOURAGED, use correct ibrav instead
     tcpu =   5772.9    self-consistency for image  10
     Message from routine setup:
     using ibrav=0 with symmetry is DISCOURAGED, use correct ibrav instead

     activation energy (->) = 800.889941 eV
     activation energy (<-) = 798.058874 eV

     image        energy (eV)        error (eV/A)        frozen

         1    -133598.2943820            0.508817            F
         2    -133596.5069375           11.820576            F
         3    -133591.3432770           34.916820            F
         4    -132797.4044414           17.083765            F
         5    -132803.2089084           22.083502            F
         6    -133589.6474260           17.178700            F
         7    -133594.7501293            4.866936            F
         8    -133594.5499394            1.390437            F
         9    -133595.1501827            1.072320            F
        10    -133595.4633156            0.725570            F

     path length          = 15.278 bohr
     inter-image distance =  1.698 bohr

     ------------------------------ iteration  17 ------------------------------

     tcpu =   5789.3    self-consistency for image   1
     Message from routine setup:
     using ibrav=0 with symmetry is DISCOURAGED, use correct ibrav instead
     tcpu =   5806.7    self-consistency for image   2
     Message from routine setup:
     using ibrav=0 with symmetry is DISCOURAGED, use correct ibrav instead
     tcpu =   5836.7    self-consistency for image   3
     Message from routine setup:
     using ibrav=0 with symmetry is DISCOURAGED, use correct ibrav instead
     tcpu =   5879.0    self-consistency for image   4
     Message from routine setup:
     using ibrav=0 with symmetry is DISCOURAGED, use correct ibrav instead
     tcpu =   5920.2    self-consistency for image   5
     Message from routine setup:
     using ibrav=0 with symmetry is DISCOURAGED, use correct ibrav instead
     tcpu =   5963.6    self-consistency for image   6
     Message from routine setup:
     using ibrav=0 with symmetry is DISCOURAGED, use correct ibrav instead
     tcpu =   5995.7    self-consistency for image   7
     Message from routine setup:
     using ibrav=0 with symmetry is DISCOURAGED, use correct ibrav instead
     tcpu =   6015.7    self-consistency for image   8
     Message from routine setup:
     using ibrav=0 with symmetry is DISCOURAGED, use correct ibrav instead
     tcpu =   6036.0    self-consistency for image   9
     Message from routine setup:
     using ibrav=0 with symmetry is DISCOURAGED, use correct ibrav instead
     tcpu =   6053.2    self-consistency for image  10
     Message from routine setup:
     using ibrav=0 with symmetry is DISCOURAGED, use correct ibrav instead

     activation energy (->) = 800.429684 eV
     activation energy (<-) = 797.599975 eV

     image        energy (eV)        error (eV/A)        frozen

         1    -133598.2945793            0.507212            F
         2    -133596.5543629           11.519881            F
         3    -133591.5415551           33.872681            F
         4    -132797.8648949           13.076306            F
         5    -132802.1411948           16.115386            F
         6    -133589.7358297           17.258304            F
         7    -133594.7569765            4.830840            F
         8    -133594.5528143            1.412967            F
         9    -133595.1525092            1.061328            F
        10    -133595.4648702            0.728254            F

     path length          = 15.304 bohr
     inter-image distance =  1.700 bohr

     ------------------------------ iteration  18 ------------------------------

     tcpu =   6069.9    self-consistency for image   1
     Message from routine setup:
     using ibrav=0 with symmetry is DISCOURAGED, use correct ibrav instead
     tcpu =   6086.6    self-consistency for image   2
     Message from routine setup:
     using ibrav=0 with symmetry is DISCOURAGED, use correct ibrav instead
     tcpu =   6122.3    self-consistency for image   3
     Message from routine setup:
     using ibrav=0 with symmetry is DISCOURAGED, use correct ibrav instead
     tcpu =   6161.3    self-consistency for image   4
     Message from routine setup:
     using ibrav=0 with symmetry is DISCOURAGED, use correct ibrav instead
     tcpu =   6196.0    self-consistency for image   5
     Message from routine setup:
     using ibrav=0 with symmetry is DISCOURAGED, use correct ibrav instead
     tcpu =   6240.4    self-consistency for image   6
     Message from routine setup:
     using ibrav=0 with symmetry is DISCOURAGED, use correct ibrav instead
     tcpu =   6277.4    self-consistency for image   7
     Message from routine setup:
     using ibrav=0 with symmetry is DISCOURAGED, use correct ibrav instead
     tcpu =   6299.5    self-consistency for image   8
     Message from routine setup:
     using ibrav=0 with symmetry is DISCOURAGED, use correct ibrav instead
     tcpu =   6316.3    self-consistency for image   9
     Message from routine setup:
     using ibrav=0 with symmetry is DISCOURAGED, use correct ibrav instead
     tcpu =   6333.4    self-consistency for image  10
     Message from routine setup:
     using ibrav=0 with symmetry is DISCOURAGED, use correct ibrav instead

     activation energy (->) = 800.558146 eV
     activation energy (<-) = 797.729881 eV

     image        energy (eV)        error (eV/A)        frozen

         1    -133598.2947885            0.505313            F
         2    -133596.5944174           11.261375            F
         3    -133591.7347467           32.837509            F
         4    -132797.7366425            6.517041            F
         5    -132800.3915367           11.934549            F
         6    -133589.8059047           17.228319            F
         7    -133594.7642683            4.792188            F
         8    -133594.5558510            1.379217            F
         9    -133595.1549773            1.060361            F
        10    -133595.4665239            0.727424            F

     path length          = 15.319 bohr
     inter-image distance =  1.702 bohr

     ------------------------------ iteration  19 ------------------------------

     tcpu =   6349.8    self-consistency for image   1
     Message from routine setup:
     using ibrav=0 with symmetry is DISCOURAGED, use correct ibrav instead
     tcpu =   6366.8    self-consistency for image   2
     Message from routine setup:
     using ibrav=0 with symmetry is DISCOURAGED, use correct ibrav instead
     tcpu =   6403.2    self-consistency for image   3
     Message from routine setup:
     using ibrav=0 with symmetry is DISCOURAGED, use correct ibrav instead
     tcpu =   6445.9    self-consistency for image   4
     Message from routine setup:
     using ibrav=0 with symmetry is DISCOURAGED, use correct ibrav instead
     tcpu =   6485.1    self-consistency for image   5
     Message from routine setup:
     using ibrav=0 with symmetry is DISCOURAGED, use correct ibrav instead
