
     Program NEB v.7.2 starts on  6Nov2024 at 22:20:31 

     This program is part of the open-source Quantum ESPRESSO suite
     for quantum simulation of materials; please cite
         "P. Giannozzi et al., J. Phys.:Condens. Matter 21 395502 (2009);
         "P. Giannozzi et al., J. Phys.:Condens. Matter 29 465901 (2017);
         "P. Giannozzi et al., J. Chem. Phys. 152 154105 (2020);
          URL http://www.quantum-espresso.org", 
     in publications or presentations arising from this work. More details at
     http://www.quantum-espresso.org/quote

     Parallel version (MPI), running on    96 processors

     MPI processes distributed on     2 nodes
     158913 MiB available memory on the printing compute node when the environment starts
 

     Parsing file: neb.in
     Reading input from pw_1.in
Warning: card &CELL ignored
Warning: card   CELL_DYNAMICS='BFGS', ignored
Warning: card   PRESS=0.0, ignored
Warning: card   PRESS_CONV_THR=0.5, ignored
Warning: card / ignored
     Reading input from pw_2.in
Warning: card &CELL ignored
Warning: card   CELL_DYNAMICS='BFGS', ignored
Warning: card   PRESS=0.0, ignored
Warning: card   PRESS_CONV_THR=0.5, ignored
Warning: card / ignored

     initial path length           = 25.2331 bohr
     initial inter-image distance  =  6.3083 bohr
 
     string_method                 =    neb
     restart_mode                  =    from_scratch
     opt_scheme                    =    broyden
     num_of_images                 =    5
     nstep_path                    =    1000
     CI_scheme                     =    no-CI
     first_last_opt                =    T
     use_freezing                  =    F
     ds                            =    0.0756 a.u.
     k_max                         =    0.1000 a.u.
     k_min                         =    0.0050 a.u.
     suggested k_max               =  107.9285 a.u.
     suggested k_min               =    5.3964 a.u.
     path_thr                      =    0.0010 eV / A

     ------------------------------ iteration   1 ------------------------------

     tcpu =      0.5    self-consistency for image   1
     Message from routine setup:
     using ibrav=0 with symmetry is DISCOURAGED, use correct ibrav instead
     tcpu =     53.8    self-consistency for image   2
     Message from routine setup:
     using ibrav=0 with symmetry is DISCOURAGED, use correct ibrav instead
     tcpu =    111.1    self-consistency for image   3
     Message from routine setup:
     using ibrav=0 with symmetry is DISCOURAGED, use correct ibrav instead
     tcpu =    165.1    self-consistency for image   4
     Message from routine setup:
     using ibrav=0 with symmetry is DISCOURAGED, use correct ibrav instead
     tcpu =    221.3    self-consistency for image   5
     Message from routine setup:
     using ibrav=0 with symmetry is DISCOURAGED, use correct ibrav instead

     activation energy (->) = ********** eV
     activation energy (<-) = ********** eV

     image        energy (eV)        error (eV/A)        frozen

         1    -133596.3164592            0.688936            F
         2    -106815.0993903          **********            F
         3    -133595.2619620            7.599637            F
         4    -133494.0574804          433.128055            F
         5    -133595.4110757            0.756288            F

     path length          = 25.233 bohr
     inter-image distance =  6.308 bohr

     ------------------------------ iteration   2 ------------------------------

     tcpu =    274.3    self-consistency for image   1
     Message from routine setup:
     using ibrav=0 with symmetry is DISCOURAGED, use correct ibrav instead
     tcpu =    288.1    self-consistency for image   2
     Message from routine setup:
     using ibrav=0 with symmetry is DISCOURAGED, use correct ibrav instead
     tcpu =    379.4    self-consistency for image   3
     Message from routine setup:
     using ibrav=0 with symmetry is DISCOURAGED, use correct ibrav instead
     tcpu =    394.4    self-consistency for image   4
     Message from routine setup:
     using ibrav=0 with symmetry is DISCOURAGED, use correct ibrav instead
     tcpu =    415.0    self-consistency for image   5
     Message from routine setup:
     using ibrav=0 with symmetry is DISCOURAGED, use correct ibrav instead

     activation energy (->) = ********** eV
     activation energy (<-) = ********** eV

     image        energy (eV)        error (eV/A)        frozen

         1    -133596.3164694            0.688435            F
         2    -130468.1985146          **********            F
         3    -133595.2620794            7.566988            F
         4    -133494.2382158          432.280108            F
         5    -133595.4110848            0.756513            F

     path length          = 25.290 bohr
     inter-image distance =  6.323 bohr

     ------------------------------ iteration   3 ------------------------------

     tcpu =    433.5    self-consistency for image   1
     Message from routine setup:
     using ibrav=0 with symmetry is DISCOURAGED, use correct ibrav instead
     tcpu =    452.4    self-consistency for image   2
     Message from routine setup:
     using ibrav=0 with symmetry is DISCOURAGED, use correct ibrav instead
     tcpu =    547.3    self-consistency for image   3
     Message from routine setup:
     using ibrav=0 with symmetry is DISCOURAGED, use correct ibrav instead
     tcpu =    566.9    self-consistency for image   4
     Message from routine setup:
     using ibrav=0 with symmetry is DISCOURAGED, use correct ibrav instead
     tcpu =    608.7    self-consistency for image   5
     Message from routine setup:
     using ibrav=0 with symmetry is DISCOURAGED, use correct ibrav instead

     activation energy (->) = 625.510322 eV
     activation energy (<-) = 624.604943 eV

     image        energy (eV)        error (eV/A)        frozen

         1    -133596.3166835            0.686350            F
         2    -132970.8063616          **********            F
         3    -133595.2643018            7.223718            F
         4    -133497.8687981          416.018826            F
         5    -133595.4113041            0.754499            F

     path length          = 25.459 bohr
     inter-image distance =  6.365 bohr

     ------------------------------ iteration   4 ------------------------------

     tcpu =    630.1    self-consistency for image   1
     Message from routine setup:
     using ibrav=0 with symmetry is DISCOURAGED, use correct ibrav instead
     tcpu =    647.6    self-consistency for image   2
     Message from routine setup:
     using ibrav=0 with symmetry is DISCOURAGED, use correct ibrav instead
     tcpu =    742.9    self-consistency for image   3
     Message from routine setup:
     using ibrav=0 with symmetry is DISCOURAGED, use correct ibrav instead
     tcpu =    764.1    self-consistency for image   4
     Message from routine setup:
     using ibrav=0 with symmetry is DISCOURAGED, use correct ibrav instead
     tcpu =    823.9    self-consistency for image   5
     Message from routine setup:
     using ibrav=0 with symmetry is DISCOURAGED, use correct ibrav instead

     activation energy (->) = 106.900687 eV
     activation energy (<-) = 105.995309 eV

     image        energy (eV)        error (eV/A)        frozen

         1    -133596.3172897            0.682337            F
         2    -133489.4166026          726.257872            F
         3    -133595.2705410            6.271834            F
         4    -133507.2510198          373.554027            F
         5    -133595.4119117            0.752669            F

     path length          = 25.736 bohr
     inter-image distance =  6.434 bohr

     ------------------------------ iteration   5 ------------------------------

     tcpu =    842.6    self-consistency for image   1
     Message from routine setup:
     using ibrav=0 with symmetry is DISCOURAGED, use correct ibrav instead
     tcpu =    860.6    self-consistency for image   2
     Message from routine setup:
     using ibrav=0 with symmetry is DISCOURAGED, use correct ibrav instead
     tcpu =    953.7    self-consistency for image   3
     Message from routine setup:
     using ibrav=0 with symmetry is DISCOURAGED, use correct ibrav instead
     tcpu =    981.7    self-consistency for image   4
     Message from routine setup:
     using ibrav=0 with symmetry is DISCOURAGED, use correct ibrav instead
     tcpu =   1044.8    self-consistency for image   5
     Message from routine setup:
     using ibrav=0 with symmetry is DISCOURAGED, use correct ibrav instead

     activation energy (->) =  71.166823 eV
     activation energy (<-) =  70.261445 eV

     image        energy (eV)        error (eV/A)        frozen

         1    -133596.3187803            0.672696            F
         2    -133591.1501094           40.457015            F
         3    -133595.2820653            7.778370            F
         4    -133525.1519571          290.524160            F
         5    -133595.4134022            0.745819            F

     path length          = 26.112 bohr
     inter-image distance =  6.528 bohr

     ------------------------------ iteration   6 ------------------------------

     tcpu =   1063.7    self-consistency for image   1
     Message from routine setup:
     using ibrav=0 with symmetry is DISCOURAGED, use correct ibrav instead
     tcpu =   1083.1    self-consistency for image   2
     Message from routine setup:
     using ibrav=0 with symmetry is DISCOURAGED, use correct ibrav instead
     tcpu =   1135.7    self-consistency for image   3
     Message from routine setup:
     using ibrav=0 with symmetry is DISCOURAGED, use correct ibrav instead
     tcpu =   1156.6    self-consistency for image   4
     Message from routine setup:
     using ibrav=0 with symmetry is DISCOURAGED, use correct ibrav instead
     tcpu =   1215.9    self-consistency for image   5
     Message from routine setup:
     using ibrav=0 with symmetry is DISCOURAGED, use correct ibrav instead

     activation energy (->) =  65.304730 eV
     activation energy (<-) =  64.399351 eV

     image        energy (eV)        error (eV/A)        frozen

         1    -133596.3195268            0.679864            F
         2    -133591.7604980           15.305245            F
         3    -133595.2841949            7.818190            F
         4    -133531.0147967          263.125504            F
         5    -133595.4141480            0.751284            F

     path length          = 26.145 bohr
     inter-image distance =  6.536 bohr

     ------------------------------ iteration   7 ------------------------------

     tcpu =   1237.1    self-consistency for image   1
     Message from routine setup:
     using ibrav=0 with symmetry is DISCOURAGED, use correct ibrav instead
     tcpu =   1255.2    self-consistency for image   2
     Message from routine setup:
     using ibrav=0 with symmetry is DISCOURAGED, use correct ibrav instead
     tcpu =   1304.4    self-consistency for image   3
     Message from routine setup:
     using ibrav=0 with symmetry is DISCOURAGED, use correct ibrav instead
     tcpu =   1331.9    self-consistency for image   4
     Message from routine setup:
     using ibrav=0 with symmetry is DISCOURAGED, use correct ibrav instead
     tcpu =   1388.4    self-consistency for image   5
     Message from routine setup:
     using ibrav=0 with symmetry is DISCOURAGED, use correct ibrav instead

     activation energy (->) =  56.991397 eV
     activation energy (<-) =  56.086017 eV

     image        energy (eV)        error (eV/A)        frozen

         1    -133596.3208722            0.673163            F
         2    -133591.8871318            4.733856            F
         3    -133595.2874622            7.849958            F
         4    -133539.3294754          224.254535            F
         5    -133595.4154927            0.746257            F

     path length          = 26.167 bohr
     inter-image distance =  6.542 bohr

     ------------------------------ iteration   8 ------------------------------

     tcpu =   1406.6    self-consistency for image   1
     Message from routine setup:
     using ibrav=0 with symmetry is DISCOURAGED, use correct ibrav instead
     tcpu =   1429.6    self-consistency for image   2
     Message from routine setup:
     using ibrav=0 with symmetry is DISCOURAGED, use correct ibrav instead
     tcpu =   1482.6    self-consistency for image   3
     Message from routine setup:
     using ibrav=0 with symmetry is DISCOURAGED, use correct ibrav instead
     tcpu =   1521.4    self-consistency for image   4
     Message from routine setup:
     using ibrav=0 with symmetry is DISCOURAGED, use correct ibrav instead
     tcpu =   1601.9    self-consistency for image   5
     Message from routine setup:
     using ibrav=0 with symmetry is DISCOURAGED, use correct ibrav instead

     activation energy (->) =  40.446407 eV
     activation energy (<-) =  39.541031 eV

     image        energy (eV)        error (eV/A)        frozen

         1    -133596.3246540            0.683752            F
         2    -133591.8613492            8.283494            F
         3    -133595.2961726            7.856256            F
         4    -133555.8782472          159.892578            F
         5    -133595.4192785            0.752154            F

     path length          = 26.214 bohr
     inter-image distance =  6.554 bohr

     ------------------------------ iteration   9 ------------------------------

     tcpu =   1623.7    self-consistency for image   1
     Message from routine setup:
     using ibrav=0 with symmetry is DISCOURAGED, use correct ibrav instead
     tcpu =   1647.4    self-consistency for image   2
     Message from routine setup:
     using ibrav=0 with symmetry is DISCOURAGED, use correct ibrav instead
     tcpu =   1707.6    self-consistency for image   3
     Message from routine setup:
     using ibrav=0 with symmetry is DISCOURAGED, use correct ibrav instead
     tcpu =   1747.5    self-consistency for image   4
     Message from routine setup:
     using ibrav=0 with symmetry is DISCOURAGED, use correct ibrav instead
     tcpu =   1828.1    self-consistency for image   5
     Message from routine setup:
     using ibrav=0 with symmetry is DISCOURAGED, use correct ibrav instead

     activation energy (->) =  23.065712 eV
     activation energy (<-) =  22.160331 eV

     image        energy (eV)        error (eV/A)        frozen

         1    -133596.3313670            0.680463            F
         2    -133591.4959641           18.096523            F
         3    -133595.3109546            7.401685            F
         4    -133573.2656547           85.250949            F
         5    -133595.4259855            0.751525            F

     path length          = 26.305 bohr
     inter-image distance =  6.576 bohr

     ------------------------------ iteration  10 ------------------------------

     tcpu =   1854.0    self-consistency for image   1
     Message from routine setup:
     using ibrav=0 with symmetry is DISCOURAGED, use correct ibrav instead
     tcpu =   1878.9    self-consistency for image   2
     Message from routine setup:
     using ibrav=0 with symmetry is DISCOURAGED, use correct ibrav instead
     tcpu =   1942.8    self-consistency for image   3
     Message from routine setup:
     using ibrav=0 with symmetry is DISCOURAGED, use correct ibrav instead
     tcpu =   1981.7    self-consistency for image   4
     Message from routine setup:
     using ibrav=0 with symmetry is DISCOURAGED, use correct ibrav instead
     tcpu =   2062.2    self-consistency for image   5
     Message from routine setup:
     using ibrav=0 with symmetry is DISCOURAGED, use correct ibrav instead

     activation energy (->) =  14.692090 eV
     activation energy (<-) =  13.786724 eV

     image        energy (eV)        error (eV/A)        frozen

         1    -133596.3378722            0.676936            F
         2    -133591.0667443           20.650961            F
         3    -133595.3249187            5.981297            F
         4    -133581.6457824           48.173921            F
         5    -133595.4325067            0.749720            F

     path length          = 26.403 bohr
     inter-image distance =  6.601 bohr

     ------------------------------ iteration  11 ------------------------------

     tcpu =   2087.3    self-consistency for image   1
     Message from routine setup:
     using ibrav=0 with symmetry is DISCOURAGED, use correct ibrav instead
     tcpu =   2106.6    self-consistency for image   2
     Message from routine setup:
     using ibrav=0 with symmetry is DISCOURAGED, use correct ibrav instead
     tcpu =   2154.9    self-consistency for image   3
     Message from routine setup:
     using ibrav=0 with symmetry is DISCOURAGED, use correct ibrav instead
     tcpu =   2193.2    self-consistency for image   4
     Message from routine setup:
     using ibrav=0 with symmetry is DISCOURAGED, use correct ibrav instead
     tcpu =   2263.2    self-consistency for image   5
     Message from routine setup:
     using ibrav=0 with symmetry is DISCOURAGED, use correct ibrav instead

     activation energy (->) =  12.171388 eV
     activation energy (<-) =  11.266043 eV

     image        energy (eV)        error (eV/A)        frozen

         1    -133596.3413619            0.643177            F
         2    -133590.9005498           20.859571            F
         3    -133595.3327929            5.043661            F
         4    -133584.1699736           37.299741            F
         5    -133595.4360166            0.747293            F

     path length          = 26.452 bohr
     inter-image distance =  6.613 bohr

     ------------------------------ iteration  12 ------------------------------

     tcpu =   2285.0    self-consistency for image   1
     Message from routine setup:
     using ibrav=0 with symmetry is DISCOURAGED, use correct ibrav instead
     tcpu =   2303.6    self-consistency for image   2
     Message from routine setup:
     using ibrav=0 with symmetry is DISCOURAGED, use correct ibrav instead
     tcpu =   2335.4    self-consistency for image   3
     Message from routine setup:
     using ibrav=0 with symmetry is DISCOURAGED, use correct ibrav instead
     tcpu =   2363.3    self-consistency for image   4
     Message from routine setup:
     using ibrav=0 with symmetry is DISCOURAGED, use correct ibrav instead
     tcpu =   2423.6    self-consistency for image   5
     Message from routine setup:
     using ibrav=0 with symmetry is DISCOURAGED, use correct ibrav instead

     activation energy (->) =  11.509772 eV
     activation energy (<-) =  10.604461 eV

     image        energy (eV)        error (eV/A)        frozen

         1    -133596.3429371            0.658752            F
         2    -133590.8873449           20.835698            F
         3    -133595.3370458            5.061984            F
         4    -133584.8331654           34.459583            F
         5    -133595.4376267            0.736843            F

     path length          = 26.465 bohr
     inter-image distance =  6.616 bohr

     ------------------------------ iteration  13 ------------------------------

     tcpu =   2442.7    self-consistency for image   1
     Message from routine setup:
     using ibrav=0 with symmetry is DISCOURAGED, use correct ibrav instead
     tcpu =   2461.9    self-consistency for image   2
     Message from routine setup:
     using ibrav=0 with symmetry is DISCOURAGED, use correct ibrav instead
     tcpu =   2493.3    self-consistency for image   3
     Message from routine setup:
     using ibrav=0 with symmetry is DISCOURAGED, use correct ibrav instead
     tcpu =   2521.3    self-consistency for image   4
     Message from routine setup:
     using ibrav=0 with symmetry is DISCOURAGED, use correct ibrav instead
     tcpu =   2591.7    self-consistency for image   5
     Message from routine setup:
     using ibrav=0 with symmetry is DISCOURAGED, use correct ibrav instead

     activation energy (->) =  11.150760 eV
     activation energy (<-) =  10.245459 eV

     image        energy (eV)        error (eV/A)        frozen

         1    -133596.3443540            0.659476            F
         2    -133590.9165957           20.807828            F
         3    -133595.3413804            5.064032            F
         4    -133585.1935938           32.916173            F
         5    -133595.4390529            0.738270            F

     path length          = 26.471 bohr
     inter-image distance =  6.618 bohr

     ------------------------------ iteration  14 ------------------------------

     tcpu =   2611.0    self-consistency for image   1
     Message from routine setup:
     using ibrav=0 with symmetry is DISCOURAGED, use correct ibrav instead
     tcpu =   2629.5    self-consistency for image   2
     Message from routine setup:
     using ibrav=0 with symmetry is DISCOURAGED, use correct ibrav instead
     tcpu =   2667.0    self-consistency for image   3
     Message from routine setup:
     using ibrav=0 with symmetry is DISCOURAGED, use correct ibrav instead
     tcpu =   2697.2    self-consistency for image   4
     Message from routine setup:
     using ibrav=0 with symmetry is DISCOURAGED, use correct ibrav instead
     tcpu =   2753.0    self-consistency for image   5
     Message from routine setup:
     using ibrav=0 with symmetry is DISCOURAGED, use correct ibrav instead

     activation energy (->) =  10.760021 eV
     activation energy (<-) =   9.854751 eV

     image        energy (eV)        error (eV/A)        frozen

         1    -133596.3464595            0.650705            F
         2    -133590.9863215           20.707499            F
         3    -133595.3482778            5.056921            F
         4    -133585.5864382           31.234130            F
         5    -133595.4411894            0.731922            F

     path length          = 26.475 bohr
     inter-image distance =  6.619 bohr

     ------------------------------ iteration  15 ------------------------------

     tcpu =   2772.8    self-consistency for image   1
     Message from routine setup:
     using ibrav=0 with symmetry is DISCOURAGED, use correct ibrav instead
     tcpu =   2797.0    self-consistency for image   2
     Message from routine setup:
     using ibrav=0 with symmetry is DISCOURAGED, use correct ibrav instead
     tcpu =   2841.9    self-consistency for image   3
     Message from routine setup:
     using ibrav=0 with symmetry is DISCOURAGED, use correct ibrav instead
     tcpu =   2875.3    self-consistency for image   4
     Message from routine setup:
     using ibrav=0 with symmetry is DISCOURAGED, use correct ibrav instead
     tcpu =   2933.6    self-consistency for image   5
     Message from routine setup:
     using ibrav=0 with symmetry is DISCOURAGED, use correct ibrav instead

     activation energy (->) =   9.963431 eV
     activation energy (<-) =   9.058188 eV

     image        energy (eV)        error (eV/A)        frozen

         1    -133596.3516602            0.668179            F
         2    -133591.1736535           20.344195            F
         3    -133595.3655259            5.024843            F
         4    -133586.3882296           27.783377            F
         5    -133595.4464179            0.741799            F

     path length          = 26.483 bohr
     inter-image distance =  6.621 bohr

     ------------------------------ iteration  16 ------------------------------

     tcpu =   2955.8    self-consistency for image   1
     Message from routine setup:
     using ibrav=0 with symmetry is DISCOURAGED, use correct ibrav instead
     tcpu =   2983.8    self-consistency for image   2
     Message from routine setup:
     using ibrav=0 with symmetry is DISCOURAGED, use correct ibrav instead
     tcpu =   3043.8    self-consistency for image   3
     Message from routine setup:
     using ibrav=0 with symmetry is DISCOURAGED, use correct ibrav instead
     tcpu =   3086.4    self-consistency for image   4
     Message from routine setup:
     using ibrav=0 with symmetry is DISCOURAGED, use correct ibrav instead
     tcpu =   3160.9    self-consistency for image   5
     Message from routine setup:
     using ibrav=0 with symmetry is DISCOURAGED, use correct ibrav instead

     activation energy (->) =   8.304484 eV
     activation energy (<-) =   7.399387 eV

     image        energy (eV)        error (eV/A)        frozen

         1    -133596.3653194            0.661424            F
         2    -133591.6508160           17.950024            F
         3    -133595.4109789            4.936161            F
         4    -133588.0608353           20.457140            F
         5    -133595.4602224            0.740099            F

     path length          = 26.506 bohr
     inter-image distance =  6.627 bohr

     ------------------------------ iteration  17 ------------------------------

     tcpu =   3191.2    self-consistency for image   1
     Message from routine setup:
     using ibrav=0 with symmetry is DISCOURAGED, use correct ibrav instead
     tcpu =   3221.8    self-consistency for image   2
     Message from routine setup:
     using ibrav=0 with symmetry is DISCOURAGED, use correct ibrav instead
     tcpu =   3274.4    self-consistency for image   3
     Message from routine setup:
     using ibrav=0 with symmetry is DISCOURAGED, use correct ibrav instead
     tcpu =   3317.5    self-consistency for image   4
     Message from routine setup:
     using ibrav=0 with symmetry is DISCOURAGED, use correct ibrav instead
     tcpu =   3382.3    self-consistency for image   5
     Message from routine setup:
     using ibrav=0 with symmetry is DISCOURAGED, use correct ibrav instead

     activation energy (->) =   7.015324 eV
     activation energy (<-) =   6.110409 eV

     image        energy (eV)        error (eV/A)        frozen

         1    -133596.3801382            0.652649            F
         2    -133592.0743164           11.561029            F
         3    -133595.4603073            4.840656            F
         4    -133589.3648147           14.463294            F
         5    -133595.4752238            0.734910            F

     path length          = 26.536 bohr
     inter-image distance =  6.634 bohr

     ------------------------------ iteration  18 ------------------------------

     tcpu =   3412.5    self-consistency for image   1
     Message from routine setup:
     using ibrav=0 with symmetry is DISCOURAGED, use correct ibrav instead
     tcpu =   3441.2    self-consistency for image   2
     Message from routine setup:
     using ibrav=0 with symmetry is DISCOURAGED, use correct ibrav instead
     tcpu =   3492.8    self-consistency for image   3
     Message from routine setup:
     using ibrav=0 with symmetry is DISCOURAGED, use correct ibrav instead
     tcpu =   3530.5    self-consistency for image   4
     Message from routine setup:
     using ibrav=0 with symmetry is DISCOURAGED, use correct ibrav instead
     tcpu =   3596.0    self-consistency for image   5
     Message from routine setup:
     using ibrav=0 with symmetry is DISCOURAGED, use correct ibrav instead

     activation energy (->) =   6.476569 eV
     activation energy (<-) =   5.571782 eV

     image        energy (eV)        error (eV/A)        frozen

         1    -133596.3885737            0.647796            F
         2    -133592.2288086            5.729326            F
         3    -133595.4886561            4.800033            F
         4    -133589.9120043           11.801127            F
         5    -133595.4837859            0.731900            F

     path length          = 26.555 bohr
     inter-image distance =  6.639 bohr

     ------------------------------ iteration  19 ------------------------------

     tcpu =   3626.4    self-consistency for image   1
     Message from routine setup:
     using ibrav=0 with symmetry is DISCOURAGED, use correct ibrav instead
     tcpu =   3646.0    self-consistency for image   2
     Message from routine setup:
     using ibrav=0 with symmetry is DISCOURAGED, use correct ibrav instead
     tcpu =   3688.5    self-consistency for image   3
     Message from routine setup:
     using ibrav=0 with symmetry is DISCOURAGED, use correct ibrav instead
     tcpu =   3723.0    self-consistency for image   4
     Message from routine setup:
     using ibrav=0 with symmetry is DISCOURAGED, use correct ibrav instead
     tcpu =   3777.9    self-consistency for image   5
     Message from routine setup:
     using ibrav=0 with symmetry is DISCOURAGED, use correct ibrav instead

     activation energy (->) =   6.319188 eV
     activation energy (<-) =   5.414457 eV

     image        energy (eV)        error (eV/A)        frozen

         1    -133596.3917713            0.612968            F
         2    -133592.2638047            3.391722            F
         3    -133595.4998963            4.786934            F
         4    -133590.0725831           11.005551            F
         5    -133595.4870405            0.728967            F

     path length          = 26.561 bohr
     inter-image distance =  6.640 bohr

     ------------------------------ iteration  20 ------------------------------

     tcpu =   3799.4    self-consistency for image   1
     Message from routine setup:
     using ibrav=0 with symmetry is DISCOURAGED, use correct ibrav instead
     tcpu =   3818.9    self-consistency for image   2
     Message from routine setup:
     using ibrav=0 with symmetry is DISCOURAGED, use correct ibrav instead
     tcpu =   3851.8    self-consistency for image   3
     Message from routine setup:
     using ibrav=0 with symmetry is DISCOURAGED, use correct ibrav instead
     tcpu =   3877.9    self-consistency for image   4
     Message from routine setup:
     using ibrav=0 with symmetry is DISCOURAGED, use correct ibrav instead
     tcpu =   3924.8    self-consistency for image   5
     Message from routine setup:
     using ibrav=0 with symmetry is DISCOURAGED, use correct ibrav instead

     activation energy (->) =   6.266511 eV
     activation energy (<-) =   5.361837 eV

     image        energy (eV)        error (eV/A)        frozen

         1    -133596.3932623            0.630379            F
         2    -133592.2749573            3.189261            F
         3    -133595.5056981            4.776315            F
         4    -133590.1267512           10.746853            F
         5    -133595.4885885            0.715257            F

     path length          = 26.564 bohr
     inter-image distance =  6.641 bohr

     ------------------------------ iteration  21 ------------------------------

     tcpu =   3944.1    self-consistency for image   1
     Message from routine setup:
     using ibrav=0 with symmetry is DISCOURAGED, use correct ibrav instead
     tcpu =   3963.8    self-consistency for image   2
     Message from routine setup:
     using ibrav=0 with symmetry is DISCOURAGED, use correct ibrav instead
     tcpu =   3999.2    self-consistency for image   3
     Message from routine setup:
     using ibrav=0 with symmetry is DISCOURAGED, use correct ibrav instead
     tcpu =   4027.5    self-consistency for image   4
     Message from routine setup:
     using ibrav=0 with symmetry is DISCOURAGED, use correct ibrav instead
     tcpu =   4066.8    self-consistency for image   5
     Message from routine setup:
     using ibrav=0 with symmetry is DISCOURAGED, use correct ibrav instead

     activation energy (->) =   6.219210 eV
     activation energy (<-) =   5.314583 eV

     image        energy (eV)        error (eV/A)        frozen

         1    -133596.3950208            0.626642            F
         2    -133592.2854790            3.167580            F
         3    -133595.5128794            4.766332            F
         4    -133590.1758108           10.526522            F
         5    -133595.4903942            0.716669            F

     path length          = 26.566 bohr
     inter-image distance =  6.641 bohr

     ------------------------------ iteration  22 ------------------------------

     tcpu =   4086.5    self-consistency for image   1
     Message from routine setup:
     using ibrav=0 with symmetry is DISCOURAGED, use correct ibrav instead
     tcpu =   4109.0    self-consistency for image   2
     Message from routine setup:
     using ibrav=0 with symmetry is DISCOURAGED, use correct ibrav instead
     tcpu =   4148.9    self-consistency for image   3
     Message from routine setup:
     using ibrav=0 with symmetry is DISCOURAGED, use correct ibrav instead
     tcpu =   4183.3    self-consistency for image   4
     Message from routine setup:
     using ibrav=0 with symmetry is DISCOURAGED, use correct ibrav instead
     tcpu =   4236.9    self-consistency for image   5
     Message from routine setup:
     using ibrav=0 with symmetry is DISCOURAGED, use correct ibrav instead

     activation energy (->) =   6.134619 eV
     activation energy (<-) =   5.230070 eV

     image        energy (eV)        error (eV/A)        frozen

         1    -133596.3986439            0.641425            F
         2    -133592.3042261            3.129341            F
         3    -133595.5278511            4.739260            F
         4    -133590.2640251           10.144380            F
         5    -133595.4940954            0.725962            F

     path length          = 26.570 bohr
     inter-image distance =  6.643 bohr

     ------------------------------ iteration  23 ------------------------------

     tcpu =   4257.5    self-consistency for image   1
     Message from routine setup:
     using ibrav=0 with symmetry is DISCOURAGED, use correct ibrav instead
     tcpu =   4285.3    self-consistency for image   2
     Message from routine setup:
     using ibrav=0 with symmetry is DISCOURAGED, use correct ibrav instead
     tcpu =   4331.0    self-consistency for image   3
     Message from routine setup:
     using ibrav=0 with symmetry is DISCOURAGED, use correct ibrav instead
     tcpu =   4370.9    self-consistency for image   4
     Message from routine setup:
     using ibrav=0 with symmetry is DISCOURAGED, use correct ibrav instead
     tcpu =   4431.2    self-consistency for image   5
     Message from routine setup:
     using ibrav=0 with symmetry is DISCOURAGED, use correct ibrav instead

     activation energy (->) =   5.910524 eV
     activation energy (<-) =   5.006244 eV

     image        energy (eV)        error (eV/A)        frozen

         1    -133596.4091313            0.635833            F
         2    -133592.3484661            3.029078            F
         3    -133595.5711991            4.663787            F
         4    -133590.4986077            9.113997            F
         5    -133595.5048520            0.723954            F

     path length          = 26.584 bohr
     inter-image distance =  6.646 bohr

     ------------------------------ iteration  24 ------------------------------

     tcpu =   4457.7    self-consistency for image   1
     Message from routine setup:
     using ibrav=0 with symmetry is DISCOURAGED, use correct ibrav instead
     tcpu =   4488.1    self-consistency for image   2
     Message from routine setup:
     using ibrav=0 with symmetry is DISCOURAGED, use correct ibrav instead
     tcpu =   4545.4    self-consistency for image   3
     Message from routine setup:
     using ibrav=0 with symmetry is DISCOURAGED, use correct ibrav instead
     tcpu =   4593.4    self-consistency for image   4
     Message from routine setup:
     using ibrav=0 with symmetry is DISCOURAGED, use correct ibrav instead
     tcpu =   4659.8    self-consistency for image   5
     Message from routine setup:
     using ibrav=0 with symmetry is DISCOURAGED, use correct ibrav instead

     activation energy (->) =   5.505276 eV
     activation energy (<-) =   4.601602 eV

     image        energy (eV)        error (eV/A)        frozen

         1    -133596.4307941            0.622384            F
         2    -133592.4010213            8.397531            F
         3    -133595.6598252            4.517494            F
         4    -133590.9255177            7.222056            F
         5    -133595.5271192            0.716066            F

     path length          = 26.615 bohr
     inter-image distance =  6.654 bohr

     ------------------------------ iteration  25 ------------------------------

     tcpu =   4695.5    self-consistency for image   1
     Message from routine setup:
     using ibrav=0 with symmetry is DISCOURAGED, use correct ibrav instead
     tcpu =   4725.5    self-consistency for image   2
     Message from routine setup:
     using ibrav=0 with symmetry is DISCOURAGED, use correct ibrav instead
     tcpu =   4774.7    self-consistency for image   3
     Message from routine setup:
     using ibrav=0 with symmetry is DISCOURAGED, use correct ibrav instead
     tcpu =   4815.1    self-consistency for image   4
     Message from routine setup:
     using ibrav=0 with symmetry is DISCOURAGED, use correct ibrav instead
     tcpu =   4879.8    self-consistency for image   5
     Message from routine setup:
     using ibrav=0 with symmetry is DISCOURAGED, use correct ibrav instead

     activation energy (->) =   5.257774 eV
     activation energy (<-) =   4.354583 eV

     image        energy (eV)        error (eV/A)        frozen

         1    -133596.4462623            0.613153            F
         2    -133592.4161176           12.605353            F
         3    -133595.7224585            4.418764            F
         4    -133591.1884886            6.041162            F
         5    -133595.5430720            0.710406            F

     path length          = 26.640 bohr
     inter-image distance =  6.660 bohr

     ------------------------------ iteration  26 ------------------------------

     tcpu =   4909.6    self-consistency for image   1
     Message from routine setup:
     using ibrav=0 with symmetry is DISCOURAGED, use correct ibrav instead
     tcpu =   4934.7    self-consistency for image   2
     Message from routine setup:
     using ibrav=0 with symmetry is DISCOURAGED, use correct ibrav instead
     tcpu =   4974.3    self-consistency for image   3
     Message from routine setup:
     using ibrav=0 with symmetry is DISCOURAGED, use correct ibrav instead
     tcpu =   5008.4    self-consistency for image   4
     Message from routine setup:
     using ibrav=0 with symmetry is DISCOURAGED, use correct ibrav instead
     tcpu =   5066.2    self-consistency for image   5
     Message from routine setup:
     using ibrav=0 with symmetry is DISCOURAGED, use correct ibrav instead

     activation energy (->) =   5.158784 eV
     activation energy (<-) =   4.255826 eV

     image        energy (eV)        error (eV/A)        frozen

         1    -133596.4532159            0.610444            F
         2    -133592.4305771           13.637124            F
         3    -133595.7506440            4.365243            F
         4    -133591.2944315            5.569599            F
         5    -133595.5502571            0.707368            F

     path length          = 26.653 bohr
     inter-image distance =  6.663 bohr

     ------------------------------ iteration  27 ------------------------------

     tcpu =   5092.6    self-consistency for image   1
     Message from routine setup:
     using ibrav=0 with symmetry is DISCOURAGED, use correct ibrav instead
     tcpu =   5112.2    self-consistency for image   2
     Message from routine setup:
     using ibrav=0 with symmetry is DISCOURAGED, use correct ibrav instead
     tcpu =   5146.2    self-consistency for image   3
     Message from routine setup:
     using ibrav=0 with symmetry is DISCOURAGED, use correct ibrav instead
     tcpu =   5180.0    self-consistency for image   4
     Message from routine setup:
     using ibrav=0 with symmetry is DISCOURAGED, use correct ibrav instead
     tcpu =   5217.4    self-consistency for image   5
     Message from routine setup:
     using ibrav=0 with symmetry is DISCOURAGED, use correct ibrav instead

     activation energy (->) =   5.124967 eV
     activation energy (<-) =   4.222123 eV

     image        energy (eV)        error (eV/A)        frozen

         1    -133596.4558721            0.581783            F
         2    -133592.4493235           13.165099            F
         3    -133595.7617010            4.336575            F
         4    -133591.3309052            5.415746            F
         5    -133595.5530286            0.705410            F

     path length          = 26.659 bohr
     inter-image distance =  6.665 bohr

     ------------------------------ iteration  28 ------------------------------

     tcpu =   5239.8    self-consistency for image   1
     Message from routine setup:
     using ibrav=0 with symmetry is DISCOURAGED, use correct ibrav instead
     tcpu =   5259.3    self-consistency for image   2
     Message from routine setup:
     using ibrav=0 with symmetry is DISCOURAGED, use correct ibrav instead
     tcpu =   5293.7    self-consistency for image   3
     Message from routine setup:
     using ibrav=0 with symmetry is DISCOURAGED, use correct ibrav instead
     tcpu =   5321.5    self-consistency for image   4
     Message from routine setup:
     using ibrav=0 with symmetry is DISCOURAGED, use correct ibrav instead
     tcpu =   5360.6    self-consistency for image   5
     Message from routine setup:
     using ibrav=0 with symmetry is DISCOURAGED, use correct ibrav instead

     activation energy (->) =   5.106015 eV
     activation energy (<-) =   4.203259 eV

     image        energy (eV)        error (eV/A)        frozen

         1    -133596.4575549            0.588775            F
         2    -133592.4720416           12.116712            F
         3    -133595.7690648            4.313301            F
         4    -133591.3515400            5.344728            F
         5    -133595.5547993            0.686237            F

     path length          = 26.663 bohr
     inter-image distance =  6.666 bohr

     ------------------------------ iteration  29 ------------------------------

     tcpu =   5380.1    self-consistency for image   1
     Message from routine setup:
     using ibrav=0 with symmetry is DISCOURAGED, use correct ibrav instead
     tcpu =   5403.0    self-consistency for image   2
     Message from routine setup:
     using ibrav=0 with symmetry is DISCOURAGED, use correct ibrav instead
     tcpu =   5443.6    self-consistency for image   3
     Message from routine setup:
     using ibrav=0 with symmetry is DISCOURAGED, use correct ibrav instead
     tcpu =   5477.0    self-consistency for image   4
     Message from routine setup:
     using ibrav=0 with symmetry is DISCOURAGED, use correct ibrav instead
     tcpu =   5522.0    self-consistency for image   5
     Message from routine setup:
     using ibrav=0 with symmetry is DISCOURAGED, use correct ibrav instead

     activation energy (->) =   5.069847 eV
     activation energy (<-) =   4.167251 eV

     image        energy (eV)        error (eV/A)        frozen

         1    -133596.4610430            0.603979            F
         2    -133592.5211781            9.505018            F
         3    -133595.7843913            4.261410            F
         4    -133591.3911961            5.210067            F
         5    -133595.5584470            0.701781            F

     path length          = 26.672 bohr
     inter-image distance =  6.668 bohr

     ------------------------------ iteration  30 ------------------------------

     tcpu =   5544.2    self-consistency for image   1
     Message from routine setup:
     using ibrav=0 with symmetry is DISCOURAGED, use correct ibrav instead
     tcpu =   5571.1    self-consistency for image   2
     Message from routine setup:
     using ibrav=0 with symmetry is DISCOURAGED, use correct ibrav instead
     tcpu =   5616.9    self-consistency for image   3
     Message from routine setup:
     using ibrav=0 with symmetry is DISCOURAGED, use correct ibrav instead
     tcpu =   5652.0    self-consistency for image   4
     Message from routine setup:
     using ibrav=0 with symmetry is DISCOURAGED, use correct ibrav instead
     tcpu =   5706.9    self-consistency for image   5
     Message from routine setup:
     using ibrav=0 with symmetry is DISCOURAGED, use correct ibrav instead

     activation energy (->) =   4.964369 eV
     activation energy (<-) =   4.062280 eV

     image        energy (eV)        error (eV/A)        frozen

         1    -133596.4716580            0.598071            F
         2    -133592.6235525            2.838094            F
         3    -133595.8307982            4.124118            F
         4    -133591.5072889            4.832214            F
         5    -133595.5695689            0.699534            F

     path length          = 26.700 bohr
     inter-image distance =  6.675 bohr

     ------------------------------ iteration  31 ------------------------------

     tcpu =   5737.2    self-consistency for image   1
     Message from routine setup:
     using ibrav=0 with symmetry is DISCOURAGED, use correct ibrav instead
     tcpu =   5771.9    self-consistency for image   2
     Message from routine setup:
     using ibrav=0 with symmetry is DISCOURAGED, use correct ibrav instead
     tcpu =   5825.2    self-consistency for image   3
     Message from routine setup:
     using ibrav=0 with symmetry is DISCOURAGED, use correct ibrav instead
     tcpu =   5872.3    self-consistency for image   4
     Message from routine setup:
     using ibrav=0 with symmetry is DISCOURAGED, use correct ibrav instead
     tcpu =   5929.5    self-consistency for image   5
     Message from routine setup:
     using ibrav=0 with symmetry is DISCOURAGED, use correct ibrav instead

     activation energy (->) =   4.758433 eV
     activation energy (<-) =   3.857441 eV

     image        energy (eV)        error (eV/A)        frozen

         1    -133596.4936530            0.584837            F
         2    -133592.6571474            7.959636            F
         3    -133595.9250799            3.912245            F
         4    -133591.7352201            4.092262            F
         5    -133595.5926614            0.690939            F

     path length          = 26.757 bohr
     inter-image distance =  6.689 bohr

     ------------------------------ iteration  32 ------------------------------

     tcpu =   5966.3    self-consistency for image   1
     Message from routine setup:
     using ibrav=0 with symmetry is DISCOURAGED, use correct ibrav instead
     tcpu =   6001.3    self-consistency for image   2
     Message from routine setup:
     using ibrav=0 with symmetry is DISCOURAGED, use correct ibrav instead
     tcpu =   6056.8    self-consistency for image   3
     Message from routine setup:
     using ibrav=0 with symmetry is DISCOURAGED, use correct ibrav instead
     tcpu =   6096.5    self-consistency for image   4
     Message from routine setup:
     using ibrav=0 with symmetry is DISCOURAGED, use correct ibrav instead
     tcpu =   6156.8    self-consistency for image   5
     Message from routine setup:
     using ibrav=0 with symmetry is DISCOURAGED, use correct ibrav instead

     activation energy (->) =   4.628409 eV
     activation energy (<-) =   3.728218 eV

     image        energy (eV)        error (eV/A)        frozen

         1    -133596.5084967            0.574410            F
         2    -133592.5997590           12.095212            F
         3    -133595.9874039            3.799212            F
         4    -133591.8800880            3.629884            F
         5    -133595.6083055            0.685180            F

     path length          = 26.796 bohr
     inter-image distance =  6.699 bohr

     ------------------------------ iteration  33 ------------------------------

     tcpu =   6187.0    self-consistency for image   1
     Message from routine setup:
     using ibrav=0 with symmetry is DISCOURAGED, use correct ibrav instead
     tcpu =   6209.5    self-consistency for image   2
     Message from routine setup:
     using ibrav=0 with symmetry is DISCOURAGED, use correct ibrav instead
     tcpu =   6252.6    self-consistency for image   3
     Message from routine setup:
     using ibrav=0 with symmetry is DISCOURAGED, use correct ibrav instead
     tcpu =   6286.3    self-consistency for image   4
     Message from routine setup:
     using ibrav=0 with symmetry is DISCOURAGED, use correct ibrav instead
     tcpu =   6329.8    self-consistency for image   5
     Message from routine setup:
     using ibrav=0 with symmetry is DISCOURAGED, use correct ibrav instead

     activation energy (->) =   4.593356 eV
     activation energy (<-) =   3.693407 eV

     image        energy (eV)        error (eV/A)        frozen

         1    -133596.5127121            0.571684            F
         2    -133592.5899965           12.707112            F
         3    -133596.0049905            3.761500            F
         4    -133591.9193566            3.512449            F
         5    -133595.6127635            0.680321            F

     path length          = 26.805 bohr
     inter-image distance =  6.701 bohr

     ------------------------------ iteration  34 ------------------------------

     tcpu =   6352.1    self-consistency for image   1
     Message from routine setup:
     using ibrav=0 with symmetry is DISCOURAGED, use correct ibrav instead
     tcpu =   6371.6    self-consistency for image   2
     Message from routine setup:
     using ibrav=0 with symmetry is DISCOURAGED, use correct ibrav instead
     tcpu =   6400.4    self-consistency for image   3
     Message from routine setup:
     using ibrav=0 with symmetry is DISCOURAGED, use correct ibrav instead
     tcpu =   6428.3    self-consistency for image   4
     Message from routine setup:
     using ibrav=0 with symmetry is DISCOURAGED, use correct ibrav instead
     tcpu =   6462.0    self-consistency for image   5
     Message from routine setup:
     using ibrav=0 with symmetry is DISCOURAGED, use correct ibrav instead

     activation energy (->) =   4.580609 eV
     activation energy (<-) =   3.680751 eV

     image        energy (eV)        error (eV/A)        frozen

         1    -133596.5143401            0.560065            F
         2    -133592.5997282           12.633715            F
         3    -133596.0118464            3.742542            F
         4    -133591.9337314            3.474831            F
         5    -133595.6144822            0.670691            F

     path length          = 26.807 bohr
     inter-image distance =  6.702 bohr

     ------------------------------ iteration  35 ------------------------------

     tcpu =   6480.3    self-consistency for image   1
     Message from routine setup:
     using ibrav=0 with symmetry is DISCOURAGED, use correct ibrav instead
     tcpu =   6499.0    self-consistency for image   2
     Message from routine setup:
     using ibrav=0 with symmetry is DISCOURAGED, use correct ibrav instead
     tcpu =   6528.7    self-consistency for image   3
     Message from routine setup:
     using ibrav=0 with symmetry is DISCOURAGED, use correct ibrav instead
     tcpu =   6556.9    self-consistency for image   4
     Message from routine setup:
     using ibrav=0 with symmetry is DISCOURAGED, use correct ibrav instead
     tcpu =   6587.1    self-consistency for image   5
     Message from routine setup:
     using ibrav=0 with symmetry is DISCOURAGED, use correct ibrav instead

     activation energy (->) =   4.569562 eV
     activation energy (<-) =   3.669793 eV

     image        energy (eV)        error (eV/A)        frozen

         1    -133596.5158304            0.553830            F
         2    -133592.6216973           12.304072            F
         3    -133596.0182239            3.719695            F
         4    -133591.9462680            3.448242            F
         5    -133595.6160615            0.669210            F

     path length          = 26.807 bohr
     inter-image distance =  6.702 bohr

     ------------------------------ iteration  36 ------------------------------

     tcpu =   6606.1    self-consistency for image   1
     Message from routine setup:
     using ibrav=0 with symmetry is DISCOURAGED, use correct ibrav instead
     tcpu =   6630.9    self-consistency for image   2
     Message from routine setup:
     using ibrav=0 with symmetry is DISCOURAGED, use correct ibrav instead
     tcpu =   6677.4    self-consistency for image   3
     Message from routine setup:
     using ibrav=0 with symmetry is DISCOURAGED, use correct ibrav instead
     tcpu =   6711.8    self-consistency for image   4
     Message from routine setup:
     using ibrav=0 with symmetry is DISCOURAGED, use correct ibrav instead
     tcpu =   6756.0    self-consistency for image   5
     Message from routine setup:
     using ibrav=0 with symmetry is DISCOURAGED, use correct ibrav instead

     activation energy (->) =   4.527477 eV
     activation energy (<-) =   3.628054 eV

     image        energy (eV)        error (eV/A)        frozen

         1    -133596.5216006            0.567793            F
         2    -133592.7143956           10.450357            F
         3    -133596.0429587            3.626899            F
         4    -133591.9941232            3.352511            F
         5    -133595.6221769            0.678445            F

     path length          = 26.805 bohr
     inter-image distance =  6.701 bohr

     ------------------------------ iteration  37 ------------------------------

     tcpu =   6780.1    self-consistency for image   1
     Message from routine setup:
     using ibrav=0 with symmetry is DISCOURAGED, use correct ibrav instead
     tcpu =   6823.1    self-consistency for image   2
     Message from routine setup:
     using ibrav=0 with symmetry is DISCOURAGED, use correct ibrav instead
     tcpu =   6887.4    self-consistency for image   3
     Message from routine setup:
     using ibrav=0 with symmetry is DISCOURAGED, use correct ibrav instead
     tcpu =   6948.5    self-consistency for image   4
     Message from routine setup:
     using ibrav=0 with symmetry is DISCOURAGED, use correct ibrav instead
     tcpu =   7015.9    self-consistency for image   5
     Message from routine setup:
     using ibrav=0 with symmetry is DISCOURAGED, use correct ibrav instead

     activation energy (->) =   4.234635 eV
     activation energy (<-) =   3.337979 eV

     image        energy (eV)        error (eV/A)        frozen

         1    -133596.5634233            0.539875            F
         2    -133592.9079591           13.665059            F
         3    -133596.2160351            3.140692            F
         4    -133592.3287880            2.776311            F
         5    -133595.6667669            0.659592            F

     path length          = 26.796 bohr
     inter-image distance =  6.699 bohr

     ------------------------------ iteration  38 ------------------------------

     tcpu =   7058.8    self-consistency for image   1
     Message from routine setup:
     using ibrav=0 with symmetry is DISCOURAGED, use correct ibrav instead
     tcpu =   7100.0    self-consistency for image   2
     Message from routine setup:
     using ibrav=0 with symmetry is DISCOURAGED, use correct ibrav instead
     tcpu =   7163.2    self-consistency for image   3
     Message from routine setup:
     using ibrav=0 with symmetry is DISCOURAGED, use correct ibrav instead
     tcpu =   7206.6    self-consistency for image   4
     Message from routine setup:
     using ibrav=0 with symmetry is DISCOURAGED, use correct ibrav instead
     tcpu =   7264.6    self-consistency for image   5
     Message from routine setup:
     using ibrav=0 with symmetry is DISCOURAGED, use correct ibrav instead

     activation energy (->) =   4.110601 eV
     activation energy (<-) =   3.215624 eV

     image        energy (eV)        error (eV/A)        frozen

         1    -133596.5866872            0.524350            F
         2    -133592.4760866           35.269412            F
         3    -133596.3076679            2.985749            F
         4    -133592.5060977            2.659412            F
         5    -133595.6917110            0.650751            F

     path length          = 26.795 bohr
     inter-image distance =  6.699 bohr

     ------------------------------ iteration  39 ------------------------------

     tcpu =   7294.3    self-consistency for image   1
     Message from routine setup:
     using ibrav=0 with symmetry is DISCOURAGED, use correct ibrav instead
     tcpu =   7326.7    self-consistency for image   2
     Message from routine setup:
     using ibrav=0 with symmetry is DISCOURAGED, use correct ibrav instead
     tcpu =   7373.3    self-consistency for image   3
     Message from routine setup:
     using ibrav=0 with symmetry is DISCOURAGED, use correct ibrav instead
     tcpu =   7415.4    self-consistency for image   4
     Message from routine setup:
     using ibrav=0 with symmetry is DISCOURAGED, use correct ibrav instead
     tcpu =   7464.0    self-consistency for image   5
     Message from routine setup:
     using ibrav=0 with symmetry is DISCOURAGED, use correct ibrav instead

     activation energy (->) =   4.137442 eV
     activation energy (<-) =   3.241822 eV

     image        energy (eV)        error (eV/A)        frozen

         1    -133596.5780257            0.530329            F
         2    -133592.7463252           24.379364            F
         3    -133596.2738782            3.036449            F
         4    -133592.4405833            2.704100            F
         5    -133595.6824056            0.654108            F

     path length          = 26.798 bohr
     inter-image distance =  6.699 bohr

     ------------------------------ iteration  40 ------------------------------

     tcpu =   7487.6    self-consistency for image   1
     Message from routine setup:
     using ibrav=0 with symmetry is DISCOURAGED, use correct ibrav instead
     tcpu =   7506.3    self-consistency for image   2
     Message from routine setup:
     using ibrav=0 with symmetry is DISCOURAGED, use correct ibrav instead
     tcpu =   7544.8    self-consistency for image   3
     Message from routine setup:
     using ibrav=0 with symmetry is DISCOURAGED, use correct ibrav instead
     tcpu =   7563.9    self-consistency for image   4
     Message from routine setup:
     using ibrav=0 with symmetry is DISCOURAGED, use correct ibrav instead
     tcpu =   7588.5    self-consistency for image   5
     Message from routine setup:
     using ibrav=0 with symmetry is DISCOURAGED, use correct ibrav instead

     activation energy (->) =   4.141520 eV
     activation energy (<-) =   3.245882 eV

     image        energy (eV)        error (eV/A)        frozen

         1    -133596.5774432            0.538536            F
         2    -133592.8032141           21.913934            F
         3    -133596.2715158            3.033620            F
         4    -133592.4359227            2.707922            F
         5    -133595.6818048            0.654025            F

     path length          = 26.800 bohr
     inter-image distance =  6.700 bohr

     ------------------------------ iteration  41 ------------------------------

     tcpu =   7609.0    self-consistency for image   1
     Message from routine setup:
     using ibrav=0 with symmetry is DISCOURAGED, use correct ibrav instead
     tcpu =   7627.8    self-consistency for image   2
     Message from routine setup:
     using ibrav=0 with symmetry is DISCOURAGED, use correct ibrav instead
     tcpu =   7661.0    self-consistency for image   3
     Message from routine setup:
     using ibrav=0 with symmetry is DISCOURAGED, use correct ibrav instead
     tcpu =   7680.0    self-consistency for image   4
     Message from routine setup:
     using ibrav=0 with symmetry is DISCOURAGED, use correct ibrav instead
     tcpu =   7703.9    self-consistency for image   5
     Message from routine setup:
     using ibrav=0 with symmetry is DISCOURAGED, use correct ibrav instead

     activation energy (->) =   4.137968 eV
     activation energy (<-) =   3.242371 eV

     image        energy (eV)        error (eV/A)        frozen

         1    -133596.5780476            0.525106            F
         2    -133592.8493729           19.983460            F
         3    -133596.2737604            3.010873            F
         4    -133592.4400800            2.687630            F
         5    -133595.6824511            0.648034            F

     path length          = 26.804 bohr
     inter-image distance =  6.701 bohr

     ------------------------------ iteration  42 ------------------------------

     tcpu =   7722.5    self-consistency for image   1
     Message from routine setup:
     using ibrav=0 with symmetry is DISCOURAGED, use correct ibrav instead
     tcpu =   7748.4    self-consistency for image   2
     Message from routine setup:
     using ibrav=0 with symmetry is DISCOURAGED, use correct ibrav instead
     tcpu =   7797.2    self-consistency for image   3
     Message from routine setup:
     using ibrav=0 with symmetry is DISCOURAGED, use correct ibrav instead
     tcpu =   7832.5    self-consistency for image   4
     Message from routine setup:
     using ibrav=0 with symmetry is DISCOURAGED, use correct ibrav instead
     tcpu =   7876.6    self-consistency for image   5
     Message from routine setup:
     using ibrav=0 with symmetry is DISCOURAGED, use correct ibrav instead

     activation energy (->) =   4.103667 eV
     activation energy (<-) =   3.208540 eV

     image        energy (eV)        error (eV/A)        frozen

         1    -133596.5837259            0.527087            F
         2    -133593.0976316            5.936479            F
         3    -133596.2949020            2.885282            F
         4    -133592.4800594            2.670850            F
         5    -133595.6885998            0.647757            F

     path length          = 26.832 bohr
     inter-image distance =  6.708 bohr

     ------------------------------ iteration  43 ------------------------------

     tcpu =   7899.2    self-consistency for image   1
     Message from routine setup:
     using ibrav=0 with symmetry is DISCOURAGED, use correct ibrav instead
     tcpu =   7921.6    self-consistency for image   2
     Message from routine setup:
     using ibrav=0 with symmetry is DISCOURAGED, use correct ibrav instead
     tcpu =   7961.5    self-consistency for image   3
     Message from routine setup:
     using ibrav=0 with symmetry is DISCOURAGED, use correct ibrav instead
     tcpu =   7989.7    self-consistency for image   4
     Message from routine setup:
     using ibrav=0 with symmetry is DISCOURAGED, use correct ibrav instead
     tcpu =   8023.4    self-consistency for image   5
     Message from routine setup:
     using ibrav=0 with symmetry is DISCOURAGED, use correct ibrav instead

     activation energy (->) =   4.087964 eV
     activation energy (<-) =   3.193054 eV

     image        energy (eV)        error (eV/A)        frozen

         1    -133596.5863458            0.524034            F
         2    -133593.1343152            2.557059            F
         3    -133596.3044614            2.851068            F
         4    -133592.4983820            2.655994            F
         5    -133595.6914356            0.648133            F

     path length          = 26.844 bohr
     inter-image distance =  6.711 bohr

     ------------------------------ iteration  44 ------------------------------

     tcpu =   8043.6    self-consistency for image   1
     Message from routine setup:
     using ibrav=0 with symmetry is DISCOURAGED, use correct ibrav instead
     tcpu =   8062.4    self-consistency for image   2
     Message from routine setup:
     using ibrav=0 with symmetry is DISCOURAGED, use correct ibrav instead
     tcpu =   8105.6    self-consistency for image   3
     Message from routine setup:
     using ibrav=0 with symmetry is DISCOURAGED, use correct ibrav instead
     tcpu =   8133.1    self-consistency for image   4
     Message from routine setup:
     using ibrav=0 with symmetry is DISCOURAGED, use correct ibrav instead
     tcpu =   8163.9    self-consistency for image   5
     Message from routine setup:
     using ibrav=0 with symmetry is DISCOURAGED, use correct ibrav instead

     activation energy (->) =   4.076143 eV
     activation energy (<-) =   3.181401 eV

     image        energy (eV)        error (eV/A)        frozen

         1    -133596.5883126            0.500180            F
         2    -133593.1444344            2.609798            F
         3    -133596.3115706            2.831752            F
         4    -133592.5121692            2.644297            F
         5    -133595.6935699            0.630919            F

     path length          = 26.851 bohr
     inter-image distance =  6.713 bohr

     ------------------------------ iteration  45 ------------------------------

     tcpu =   8183.2    self-consistency for image   1
     Message from routine setup:
     using ibrav=0 with symmetry is DISCOURAGED, use correct ibrav instead
     tcpu =   8223.4    self-consistency for image   2
     Message from routine setup:
     using ibrav=0 with symmetry is DISCOURAGED, use correct ibrav instead
     tcpu =   8284.6    self-consistency for image   3
     Message from routine setup:
     using ibrav=0 with symmetry is DISCOURAGED, use correct ibrav instead
     tcpu =   8340.3    self-consistency for image   4
     Message from routine setup:
     using ibrav=0 with symmetry is DISCOURAGED, use correct ibrav instead
     tcpu =   8398.1    self-consistency for image   5
     Message from routine setup:
     using ibrav=0 with symmetry is DISCOURAGED, use correct ibrav instead

     activation energy (->) =   4.363764 eV
     activation energy (<-) =   3.472769 eV

     image        energy (eV)        error (eV/A)        frozen

         1    -133596.6286992            0.508871            F
         2    -133592.2649348           17.411241            F
         3    -133596.4542624            2.651960            F
         4    -133592.7907043            2.409015            F
         5    -133595.7377037            0.629620            F

     path length          = 27.006 bohr
     inter-image distance =  6.752 bohr

     ------------------------------ iteration  46 ------------------------------

     tcpu =   8442.0    self-consistency for image   1
     Message from routine setup:
     using ibrav=0 with symmetry is DISCOURAGED, use correct ibrav instead
     tcpu =   8473.8    self-consistency for image   2
     Message from routine setup:
     using ibrav=0 with symmetry is DISCOURAGED, use correct ibrav instead
     tcpu =   8533.1    self-consistency for image   3
     Message from routine setup:
     using ibrav=0 with symmetry is DISCOURAGED, use correct ibrav instead
     tcpu =   8572.2    self-consistency for image   4
     Message from routine setup:
     using ibrav=0 with symmetry is DISCOURAGED, use correct ibrav instead
     tcpu =   8616.0    self-consistency for image   5
     Message from routine setup:
     using ibrav=0 with symmetry is DISCOURAGED, use correct ibrav instead

     activation energy (->) =   4.086863 eV
     activation energy (<-) =   3.195102 eV

     image        energy (eV)        error (eV/A)        frozen

         1    -133596.6210279            0.510961            F
         2    -133592.5341647           16.700014            F
         3    -133596.4277823            2.672377            F
         4    -133592.7385553            2.453291            F
         5    -133595.7292666            0.635226            F

     path length          = 26.974 bohr
     inter-image distance =  6.743 bohr

     ------------------------------ iteration  47 ------------------------------

     tcpu =   8639.2    self-consistency for image   1
     Message from routine setup:
     using ibrav=0 with symmetry is DISCOURAGED, use correct ibrav instead
     tcpu =   8671.7    self-consistency for image   2
     Message from routine setup:
     using ibrav=0 with symmetry is DISCOURAGED, use correct ibrav instead
     tcpu =   8736.3    self-consistency for image   3
     Message from routine setup:
     using ibrav=0 with symmetry is DISCOURAGED, use correct ibrav instead
     tcpu =   8775.1    self-consistency for image   4
     Message from routine setup:
     using ibrav=0 with symmetry is DISCOURAGED, use correct ibrav instead
     tcpu =   8823.5    self-consistency for image   5
     Message from routine setup:
     using ibrav=0 with symmetry is DISCOURAGED, use correct ibrav instead

     activation energy (->) =   3.950471 eV
     activation energy (<-) =   3.057651 eV

     image        energy (eV)        error (eV/A)        frozen

         1    -133596.6094300            0.514862            F
         2    -133592.9193264           13.657528            F
         3    -133596.3872402            2.722500            F
         4    -133592.6589588            2.520875            F
         5    -133595.7166097            0.638927            F

     path length          = 26.923 bohr
     inter-image distance =  6.731 bohr

     ------------------------------ iteration  48 ------------------------------

     tcpu =   8854.2    self-consistency for image   1
     Message from routine setup:
     using ibrav=0 with symmetry is DISCOURAGED, use correct ibrav instead
     tcpu =   8885.0    self-consistency for image   2
     Message from routine setup:
     using ibrav=0 with symmetry is DISCOURAGED, use correct ibrav instead
     tcpu =   8940.2    self-consistency for image   3
     Message from routine setup:
     using ibrav=0 with symmetry is DISCOURAGED, use correct ibrav instead
     tcpu =   8973.5    self-consistency for image   4
     Message from routine setup:
     using ibrav=0 with symmetry is DISCOURAGED, use correct ibrav instead
     tcpu =   9017.0    self-consistency for image   5
     Message from routine setup:
     using ibrav=0 with symmetry is DISCOURAGED, use correct ibrav instead

     activation energy (->) =   3.986896 eV
     activation energy (<-) =   3.093520 eV

     image        energy (eV)        error (eV/A)        frozen

         1    -133596.6032745            0.516807            F
         2    -133593.0882566            9.723107            F
         3    -133596.3655028            2.729024            F
         4    -133592.6163788            2.557392            F
         5    -133595.7098988            0.642432            F

     path length          = 26.894 bohr
     inter-image distance =  6.724 bohr

     ------------------------------ iteration  49 ------------------------------

     tcpu =   9041.0    self-consistency for image   1
     Message from routine setup:
     using ibrav=0 with symmetry is DISCOURAGED, use correct ibrav instead
     tcpu =   9061.2    self-consistency for image   2
     Message from routine setup:
     using ibrav=0 with symmetry is DISCOURAGED, use correct ibrav instead
     tcpu =   9092.1    self-consistency for image   3
     Message from routine setup:
     using ibrav=0 with symmetry is DISCOURAGED, use correct ibrav instead
     tcpu =   9111.3    self-consistency for image   4
     Message from routine setup:
     using ibrav=0 with symmetry is DISCOURAGED, use correct ibrav instead
     tcpu =   9134.8    self-consistency for image   5
     Message from routine setup:
     using ibrav=0 with symmetry is DISCOURAGED, use correct ibrav instead

     activation energy (->) =   3.985230 eV
     activation energy (<-) =   3.091884 eV

     image        energy (eV)        error (eV/A)        frozen

         1    -133596.6035741            0.514735            F
         2    -133593.0976560            9.465600            F
         3    -133596.3664965            2.722588            F
         4    -133592.6183444            2.544281            F
         5    -133595.7102283            0.638314            F

     path length          = 26.894 bohr
     inter-image distance =  6.723 bohr

     ------------------------------ iteration  50 ------------------------------

     tcpu =   9153.1    self-consistency for image   1
     Message from routine setup:
     using ibrav=0 with symmetry is DISCOURAGED, use correct ibrav instead
     tcpu =   9171.6    self-consistency for image   2
     Message from routine setup:
     using ibrav=0 with symmetry is DISCOURAGED, use correct ibrav instead
     tcpu =   9201.1    self-consistency for image   3
     Message from routine setup:
     using ibrav=0 with symmetry is DISCOURAGED, use correct ibrav instead
     tcpu =   9220.4    self-consistency for image   4
     Message from routine setup:
     using ibrav=0 with symmetry is DISCOURAGED, use correct ibrav instead
     tcpu =   9242.1    self-consistency for image   5
     Message from routine setup:
     using ibrav=0 with symmetry is DISCOURAGED, use correct ibrav instead

     activation energy (->) =   3.983621 eV
     activation energy (<-) =   3.090301 eV

     image        energy (eV)        error (eV/A)        frozen

         1    -133596.6038545            0.513136            F
         2    -133593.1068605            9.201200            F
         3    -133596.3674470            2.717485            F
         4    -133592.6202338            2.543700            F
         5    -133595.7105346            0.639252            F

     path length          = 26.893 bohr
     inter-image distance =  6.723 bohr

     ------------------------------ iteration  51 ------------------------------

     tcpu =   9261.2    self-consistency for image   1
     Message from routine setup:
     using ibrav=0 with symmetry is DISCOURAGED, use correct ibrav instead
     tcpu =   9279.1    self-consistency for image   2
     Message from routine setup:
     using ibrav=0 with symmetry is DISCOURAGED, use correct ibrav instead
     tcpu =   9314.7    self-consistency for image   3
     Message from routine setup:
     using ibrav=0 with symmetry is DISCOURAGED, use correct ibrav instead
     tcpu =   9334.4    self-consistency for image   4
     Message from routine setup:
     using ibrav=0 with symmetry is DISCOURAGED, use correct ibrav instead
     tcpu =   9358.0    self-consistency for image   5
     Message from routine setup:
     using ibrav=0 with symmetry is DISCOURAGED, use correct ibrav instead

     activation energy (->) =   3.980180 eV
     activation energy (<-) =   3.086921 eV

     image        energy (eV)        error (eV/A)        frozen

         1    -133596.6044465            0.509607            F
         2    -133593.1215065            8.747512            F
         3    -133596.3694820            2.706795            F
         4    -133592.6242667            2.526580            F
         5    -133595.7111879            0.635789            F

     path length          = 26.891 bohr
     inter-image distance =  6.723 bohr

     ------------------------------ iteration  52 ------------------------------

     tcpu =   9376.9    self-consistency for image   1
     Message from routine setup:
     using ibrav=0 with symmetry is DISCOURAGED, use correct ibrav instead
     tcpu =   9395.5    self-consistency for image   2
     Message from routine setup:
     using ibrav=0 with symmetry is DISCOURAGED, use correct ibrav instead
     tcpu =   9437.7    self-consistency for image   3
     Message from routine setup:
     using ibrav=0 with symmetry is DISCOURAGED, use correct ibrav instead
     tcpu =   9463.7    self-consistency for image   4
     Message from routine setup:
     using ibrav=0 with symmetry is DISCOURAGED, use correct ibrav instead
     tcpu =   9495.7    self-consistency for image   5
     Message from routine setup:
     using ibrav=0 with symmetry is DISCOURAGED, use correct ibrav instead

     activation energy (->) =   3.971305 eV
     activation energy (<-) =   3.078205 eV

     image        energy (eV)        error (eV/A)        frozen

         1    -133596.6059511            0.499746            F
         2    -133593.1552000            7.594059            F
         3    -133596.3746957            2.685179            F
         4    -133592.6346458            2.542673            F
         5    -133595.7128512            0.625364            F

     path length          = 26.888 bohr
     inter-image distance =  6.722 bohr

     ------------------------------ iteration  53 ------------------------------

     tcpu =   9513.8    self-consistency for image   1
     Message from routine setup:
     using ibrav=0 with symmetry is DISCOURAGED, use correct ibrav instead
     tcpu =   9538.1    self-consistency for image   2
     Message from routine setup:
     using ibrav=0 with symmetry is DISCOURAGED, use correct ibrav instead
     tcpu =   9590.0    self-consistency for image   3
     Message from routine setup:
     using ibrav=0 with symmetry is DISCOURAGED, use correct ibrav instead
     tcpu =   9624.7    self-consistency for image   4
     Message from routine setup:
     using ibrav=0 with symmetry is DISCOURAGED, use correct ibrav instead
     tcpu =   9664.2    self-consistency for image   5
     Message from routine setup:
     using ibrav=0 with symmetry is DISCOURAGED, use correct ibrav instead

     activation energy (->) =   3.943113 eV
     activation energy (<-) =   3.050497 eV

     image        energy (eV)        error (eV/A)        frozen

         1    -133596.6108156            0.515026            F
         2    -133593.2348164            3.255890            F
         3    -133596.3913031            2.617847            F
         4    -133592.6677027            2.515238            F
         5    -133595.7181997            0.635173            F

     path length          = 26.879 bohr
     inter-image distance =  6.720 bohr

     ------------------------------ iteration  54 ------------------------------

     tcpu =   9687.1    self-consistency for image   1
     Message from routine setup:
     using ibrav=0 with symmetry is DISCOURAGED, use correct ibrav instead
     tcpu =   9714.2    self-consistency for image   2
     Message from routine setup:
     using ibrav=0 with symmetry is DISCOURAGED, use correct ibrav instead
     tcpu =   9764.1    self-consistency for image   3
     Message from routine setup:
     using ibrav=0 with symmetry is DISCOURAGED, use correct ibrav instead
     tcpu =   9798.0    self-consistency for image   4
     Message from routine setup:
     using ibrav=0 with symmetry is DISCOURAGED, use correct ibrav instead
     tcpu =   9837.9    self-consistency for image   5
     Message from routine setup:
     using ibrav=0 with symmetry is DISCOURAGED, use correct ibrav instead

     activation energy (->) =   3.902281 eV
     activation energy (<-) =   3.010395 eV

     image        energy (eV)        error (eV/A)        frozen

         1    -133596.6178884            0.512233            F
         2    -133593.2596085            4.766200            F
[...]

     activation energy (->) =   1.106129 eV
     activation energy (<-) =   0.753671 eV

     image        energy (eV)        error (eV/A)        frozen

         1    -133597.4326462            0.237717            F
         2    -133596.3265177            1.715929            F
         3    -133598.2743965            0.545455            F
         4    -133596.7041794            0.945192            F
         5    -133597.0801885            0.289172            F

     path length          = 28.003 bohr
     inter-image distance =  7.001 bohr

     ------------------------------ iteration 249 ------------------------------

     tcpu =  42073.3    self-consistency for image   1
     Message from routine setup:
     using ibrav=0 with symmetry is DISCOURAGED, use correct ibrav instead
     tcpu =  42104.8    self-consistency for image   2
     Message from routine setup:
     using ibrav=0 with symmetry is DISCOURAGED, use correct ibrav instead
     tcpu =  42144.0    self-consistency for image   3
     Message from routine setup:
     using ibrav=0 with symmetry is DISCOURAGED, use correct ibrav instead
     tcpu =  42178.2    self-consistency for image   4
     Message from routine setup:
     using ibrav=0 with symmetry is DISCOURAGED, use correct ibrav instead
     tcpu =  42213.1    self-consistency for image   5
     Message from routine setup:
     using ibrav=0 with symmetry is DISCOURAGED, use correct ibrav instead

     activation energy (->) =   1.102591 eV
     activation energy (<-) =   0.750906 eV

     image        energy (eV)        error (eV/A)        frozen

         1    -133597.4336173            0.238886            F
         2    -133596.3310263            1.599145            F
         3    -133598.2759294            0.547655            F
         4    -133596.7071304            0.942876            F
         5    -133597.0819320            0.290034            F

     path length          = 28.011 bohr
     inter-image distance =  7.003 bohr

     ------------------------------ iteration 250 ------------------------------

     tcpu =  42242.4    self-consistency for image   1
     Message from routine setup:
     using ibrav=0 with symmetry is DISCOURAGED, use correct ibrav instead
     tcpu =  42263.4    self-consistency for image   2
     Message from routine setup:
     using ibrav=0 with symmetry is DISCOURAGED, use correct ibrav instead
     tcpu =  42288.0    self-consistency for image   3
     Message from routine setup:
     using ibrav=0 with symmetry is DISCOURAGED, use correct ibrav instead
     tcpu =  42310.0    self-consistency for image   4
     Message from routine setup:
     using ibrav=0 with symmetry is DISCOURAGED, use correct ibrav instead
     tcpu =  42332.9    self-consistency for image   5
     Message from routine setup:
     using ibrav=0 with symmetry is DISCOURAGED, use correct ibrav instead

     activation energy (->) =   1.102090 eV
     activation energy (<-) =   0.750521 eV

     image        energy (eV)        error (eV/A)        frozen

         1    -133597.4337658            0.233638            F
         2    -133596.3316759            1.594856            F
         3    -133598.2761713            0.536737            F
         4    -133596.7075727            0.919535            F
         5    -133597.0821965            0.284584            F

     path length          = 28.012 bohr
     inter-image distance =  7.003 bohr

     ------------------------------ iteration 251 ------------------------------

     tcpu =  42355.0    self-consistency for image   1
     Message from routine setup:
     using ibrav=0 with symmetry is DISCOURAGED, use correct ibrav instead
     tcpu =  42375.4    self-consistency for image   2
     Message from routine setup:
     using ibrav=0 with symmetry is DISCOURAGED, use correct ibrav instead
     tcpu =  42397.7    self-consistency for image   3
     Message from routine setup:
     using ibrav=0 with symmetry is DISCOURAGED, use correct ibrav instead
     tcpu =  42416.5    self-consistency for image   4
     Message from routine setup:
     using ibrav=0 with symmetry is DISCOURAGED, use correct ibrav instead
     tcpu =  42439.2    self-consistency for image   5
     Message from routine setup:
     using ibrav=0 with symmetry is DISCOURAGED, use correct ibrav instead

     activation energy (->) =   1.101494 eV
     activation energy (<-) =   0.750015 eV

     image        energy (eV)        error (eV/A)        frozen

         1    -133597.4338762            0.233122            F
         2    -133596.3323820            1.598849            F
         3    -133598.2763530            0.538782            F
         4    -133596.7078897            0.927145            F
         5    -133597.0823970            0.285824            F

     path length          = 28.013 bohr
     inter-image distance =  7.003 bohr

     ------------------------------ iteration 252 ------------------------------

     tcpu =  42457.0    self-consistency for image   1
     Message from routine setup:
     using ibrav=0 with symmetry is DISCOURAGED, use correct ibrav instead
     tcpu =  42478.0    self-consistency for image   2
     Message from routine setup:
     using ibrav=0 with symmetry is DISCOURAGED, use correct ibrav instead
     tcpu =  42498.2    self-consistency for image   3
     Message from routine setup:
     using ibrav=0 with symmetry is DISCOURAGED, use correct ibrav instead
     tcpu =  42516.1    self-consistency for image   4
     Message from routine setup:
     using ibrav=0 with symmetry is DISCOURAGED, use correct ibrav instead
     tcpu =  42539.3    self-consistency for image   5
     Message from routine setup:
     using ibrav=0 with symmetry is DISCOURAGED, use correct ibrav instead

     activation energy (->) =   1.100641 eV
     activation energy (<-) =   0.749267 eV

     image        energy (eV)        error (eV/A)        frozen

         1    -133597.4340070            0.231339            F
         2    -133596.3333662            1.613586            F
         3    -133598.2765743            0.537168            F
         4    -133596.7082717            0.924017            F
         5    -133597.0826334            0.285016            F

     path length          = 28.013 bohr
     inter-image distance =  7.003 bohr

     ------------------------------ iteration 253 ------------------------------

     tcpu =  42558.0    self-consistency for image   1
     Message from routine setup:
     using ibrav=0 with symmetry is DISCOURAGED, use correct ibrav instead
     tcpu =  42586.6    self-consistency for image   2
     Message from routine setup:
     using ibrav=0 with symmetry is DISCOURAGED, use correct ibrav instead
     tcpu =  42614.3    self-consistency for image   3
     Message from routine setup:
     using ibrav=0 with symmetry is DISCOURAGED, use correct ibrav instead
     tcpu =  42646.2    self-consistency for image   4
     Message from routine setup:
     using ibrav=0 with symmetry is DISCOURAGED, use correct ibrav instead
     tcpu =  42679.6    self-consistency for image   5
     Message from routine setup:
     using ibrav=0 with symmetry is DISCOURAGED, use correct ibrav instead

     activation energy (->) =   1.096911 eV
     activation energy (<-) =   0.746079 eV

     image        energy (eV)        error (eV/A)        frozen

         1    -133597.4346916            0.239792            F
         2    -133596.3377803            1.696676            F
         3    -133598.2777256            0.545819            F
         4    -133596.7102505            0.938292            F
         5    -133597.0838597            0.288094            F

     path length          = 28.013 bohr
     inter-image distance =  7.003 bohr

     ------------------------------ iteration 254 ------------------------------

     tcpu =  42707.4    self-consistency for image   1
     Message from routine setup:
     using ibrav=0 with symmetry is DISCOURAGED, use correct ibrav instead
     tcpu =  42737.2    self-consistency for image   2
     Message from routine setup:
     using ibrav=0 with symmetry is DISCOURAGED, use correct ibrav instead
     tcpu =  42771.8    self-consistency for image   3
     Message from routine setup:
     using ibrav=0 with symmetry is DISCOURAGED, use correct ibrav instead
     tcpu =  42802.7    self-consistency for image   4
     Message from routine setup:
     using ibrav=0 with symmetry is DISCOURAGED, use correct ibrav instead
     tcpu =  42839.9    self-consistency for image   5
     Message from routine setup:
     using ibrav=0 with symmetry is DISCOURAGED, use correct ibrav instead

     activation energy (->) =   1.094516 eV
     activation energy (<-) =   0.744252 eV

     image        energy (eV)        error (eV/A)        frozen

         1    -133597.4354094            0.239541            F
         2    -133596.3408932            1.780887            F
         3    -133598.2789181            0.544616            F
         4    -133596.7122886            0.936742            F
         5    -133597.0851454            0.287681            F

     path length          = 28.013 bohr
     inter-image distance =  7.003 bohr

     ------------------------------ iteration 255 ------------------------------

     tcpu =  42867.5    self-consistency for image   1
     Message from routine setup:
     using ibrav=0 with symmetry is DISCOURAGED, use correct ibrav instead
     tcpu =  42899.5    self-consistency for image   2
     Message from routine setup:
     using ibrav=0 with symmetry is DISCOURAGED, use correct ibrav instead
     tcpu =  42932.2    self-consistency for image   3
     Message from routine setup:
     using ibrav=0 with symmetry is DISCOURAGED, use correct ibrav instead
     tcpu =  42965.4    self-consistency for image   4
     Message from routine setup:
     using ibrav=0 with symmetry is DISCOURAGED, use correct ibrav instead
     tcpu =  43004.7    self-consistency for image   5
     Message from routine setup:
     using ibrav=0 with symmetry is DISCOURAGED, use correct ibrav instead

     activation energy (->) =   1.093724 eV
     activation energy (<-) =   0.744261 eV

     image        energy (eV)        error (eV/A)        frozen

         1    -133597.4364291            0.237908            F
         2    -133596.3427052            1.897251            F
         3    -133598.2806121            0.541604            F
         4    -133596.7151886            0.933296            F
         5    -133597.0869663            0.288904            F

     path length          = 28.013 bohr
     inter-image distance =  7.003 bohr

     ------------------------------ iteration 256 ------------------------------

     tcpu =  43040.7    self-consistency for image   1
     Message from routine setup:
     using ibrav=0 with symmetry is DISCOURAGED, use correct ibrav instead
     tcpu =  43073.4    self-consistency for image   2
     Message from routine setup:
     using ibrav=0 with symmetry is DISCOURAGED, use correct ibrav instead
     tcpu =  43106.3    self-consistency for image   3
     Message from routine setup:
     using ibrav=0 with symmetry is DISCOURAGED, use correct ibrav instead
     tcpu =  43141.2    self-consistency for image   4
     Message from routine setup:
     using ibrav=0 with symmetry is DISCOURAGED, use correct ibrav instead
     tcpu =  43177.7    self-consistency for image   5
     Message from routine setup:
     using ibrav=0 with symmetry is DISCOURAGED, use correct ibrav instead

     activation energy (->) =   1.096627 eV
     activation energy (<-) =   0.748093 eV

     image        energy (eV)        error (eV/A)        frozen

         1    -133597.4376142            0.238533            F
         2    -133596.3409877            2.977740            F
         3    -133598.2825652            0.538774            F
         4    -133596.7185584            0.927297            F
         5    -133597.0890802            0.288711            F

     path length          = 28.014 bohr
     inter-image distance =  7.003 bohr

     ------------------------------ iteration 257 ------------------------------

     tcpu =  43214.0    self-consistency for image   1
     Message from routine setup:
     using ibrav=0 with symmetry is DISCOURAGED, use correct ibrav instead
     tcpu =  43248.9    self-consistency for image   2
     Message from routine setup:
     using ibrav=0 with symmetry is DISCOURAGED, use correct ibrav instead
     tcpu =  43277.2    self-consistency for image   3
     Message from routine setup:
     using ibrav=0 with symmetry is DISCOURAGED, use correct ibrav instead
     tcpu =  43305.9    self-consistency for image   4
     Message from routine setup:
     using ibrav=0 with symmetry is DISCOURAGED, use correct ibrav instead
     tcpu =  43342.6    self-consistency for image   5
     Message from routine setup:
     using ibrav=0 with symmetry is DISCOURAGED, use correct ibrav instead

     activation energy (->) =   1.099073 eV
     activation energy (<-) =   0.751032 eV

     image        energy (eV)        error (eV/A)        frozen

         1    -133597.4382616            0.237543            F
         2    -133596.3391889            3.591719            F
         3    -133598.2836289            0.534823            F
         4    -133596.7203691            0.925656            F
         5    -133597.0902204            0.286373            F

     path length          = 28.014 bohr
     inter-image distance =  7.004 bohr

     ------------------------------ iteration 258 ------------------------------

     tcpu =  43370.0    self-consistency for image   1
     Message from routine setup:
     using ibrav=0 with symmetry is DISCOURAGED, use correct ibrav instead
     tcpu =  43404.8    self-consistency for image   2
     Message from routine setup:
     using ibrav=0 with symmetry is DISCOURAGED, use correct ibrav instead
     tcpu =  43431.6    self-consistency for image   3
     Message from routine setup:
     using ibrav=0 with symmetry is DISCOURAGED, use correct ibrav instead
     tcpu =  43461.4    self-consistency for image   4
     Message from routine setup:
     using ibrav=0 with symmetry is DISCOURAGED, use correct ibrav instead
     tcpu =  43497.3    self-consistency for image   5
     Message from routine setup:
     using ibrav=0 with symmetry is DISCOURAGED, use correct ibrav instead

     activation energy (->) =   1.101339 eV
     activation energy (<-) =   0.753795 eV

     image        energy (eV)        error (eV/A)        frozen

         1    -133597.4388915            0.237381            F
         2    -133596.3375524            4.097948            F
         3    -133598.2846754            0.546758            F
         4    -133596.7221554            0.922981            F
         5    -133597.0913472            0.286555            F

     path length          = 28.015 bohr
     inter-image distance =  7.004 bohr

     ------------------------------ iteration 259 ------------------------------

     tcpu =  43525.3    self-consistency for image   1
     Message from routine setup:
     using ibrav=0 with symmetry is DISCOURAGED, use correct ibrav instead
     tcpu =  43553.3    self-consistency for image   2
     Message from routine setup:
     using ibrav=0 with symmetry is DISCOURAGED, use correct ibrav instead
     tcpu =  43579.5    self-consistency for image   3
     Message from routine setup:
     using ibrav=0 with symmetry is DISCOURAGED, use correct ibrav instead
     tcpu =  43607.2    self-consistency for image   4
     Message from routine setup:
     using ibrav=0 with symmetry is DISCOURAGED, use correct ibrav instead
     tcpu =  43639.2    self-consistency for image   5
     Message from routine setup:
     using ibrav=0 with symmetry is DISCOURAGED, use correct ibrav instead

     activation energy (->) =   1.102179 eV
     activation energy (<-) =   0.754997 eV

     image        energy (eV)        error (eV/A)        frozen

         1    -133597.4393590            0.237773            F
         2    -133596.3371801            4.368030            F
         3    -133598.2854355            0.554555            F
         4    -133596.7234702            0.922969            F
         5    -133597.0921769            0.286753            F

     path length          = 28.016 bohr
     inter-image distance =  7.004 bohr

     ------------------------------ iteration 260 ------------------------------

     tcpu =  43665.6    self-consistency for image   1
     Message from routine setup:
     using ibrav=0 with symmetry is DISCOURAGED, use correct ibrav instead
     tcpu =  43693.9    self-consistency for image   2
     Message from routine setup:
     using ibrav=0 with symmetry is DISCOURAGED, use correct ibrav instead
     tcpu =  43720.0    self-consistency for image   3
     Message from routine setup:
     using ibrav=0 with symmetry is DISCOURAGED, use correct ibrav instead
     tcpu =  43745.0    self-consistency for image   4
     Message from routine setup:
     using ibrav=0 with symmetry is DISCOURAGED, use correct ibrav instead
     tcpu =  43774.7    self-consistency for image   5
     Message from routine setup:
     using ibrav=0 with symmetry is DISCOURAGED, use correct ibrav instead

     activation energy (->) =   1.101759 eV
     activation energy (<-) =   0.754917 eV

     image        energy (eV)        error (eV/A)        frozen

         1    -133597.4398000            0.237467            F
         2    -133596.3380406            4.504256            F
         3    -133598.2861263            0.560519            F
         4    -133596.7247090            0.919538            F
         5    -133597.0929578            0.286409            F

     path length          = 28.018 bohr
     inter-image distance =  7.004 bohr

     ------------------------------ iteration 261 ------------------------------

     tcpu =  43802.1    self-consistency for image   1
     Message from routine setup:
     using ibrav=0 with symmetry is DISCOURAGED, use correct ibrav instead
     tcpu =  43837.8    self-consistency for image   2
     Message from routine setup:
     using ibrav=0 with symmetry is DISCOURAGED, use correct ibrav instead
     tcpu =  43876.7    self-consistency for image   3
     Message from routine setup:
     using ibrav=0 with symmetry is DISCOURAGED, use correct ibrav instead
     tcpu =  43907.7    self-consistency for image   4
     Message from routine setup:
     using ibrav=0 with symmetry is DISCOURAGED, use correct ibrav instead
     tcpu =  43943.6    self-consistency for image   5
     Message from routine setup:
     using ibrav=0 with symmetry is DISCOURAGED, use correct ibrav instead

     activation energy (->) =   1.099583 eV
     activation energy (<-) =   0.753468 eV

     image        energy (eV)        error (eV/A)        frozen

         1    -133597.4407243            0.237171            F
         2    -133596.3411411            4.673162            F
         3    -133598.2876524            0.559001            F
         4    -133596.7273179            0.916788            F
         5    -133597.0946092            0.287391            F

     path length          = 28.021 bohr
     inter-image distance =  7.005 bohr

     ------------------------------ iteration 262 ------------------------------

     tcpu =  43979.5    self-consistency for image   1
     Message from routine setup:
     using ibrav=0 with symmetry is DISCOURAGED, use correct ibrav instead
     tcpu =  44016.4    self-consistency for image   2
     Message from routine setup:
     using ibrav=0 with symmetry is DISCOURAGED, use correct ibrav instead
     tcpu =  44057.2    self-consistency for image   3
     Message from routine setup:
     using ibrav=0 with symmetry is DISCOURAGED, use correct ibrav instead
