
     Program NEB v.7.3.1 starts on 19Jun2025 at  3: 3:35 
        Git branch: HEAD
        Last git commit: 7fd60c9bc9fe7a7d1fe6f1049f4afba0eab9aeef
        Last git commit date: Thu Feb 29 10:18:05 2024 +0000
        Last git commit subject: Merge branch 'master_qe_7.3.1' into 'master'

     This program is part of the open-source Quantum ESPRESSO suite
     for quantum simulation of materials; please cite
         "P. Giannozzi et al., J. Phys.:Condens. Matter 21 395502 (2009);
         "P. Giannozzi et al., J. Phys.:Condens. Matter 29 465901 (2017);
         "P. Giannozzi et al., J. Chem. Phys. 152 154105 (2020);
          URL http://www.quantum-espresso.org", 
     in publications or presentations arising from this work. More details at
     http://www.quantum-espresso.org/quote

     Parallel version (MPI & OpenMP), running on      40 processor cores
     Number of MPI processes:                 4
     Threads/MPI process:                    10

     MPI processes distributed on     1 nodes
     1329040 MiB available memory on the printing compute node when the environment starts
 

     Parsing file: /input/neb.in
     Reading input from pw_1.in
Warning: card &CELL ignored
Warning: card   CELL_DYNAMICS = 'BFGS' ignored
Warning: card   PRESS = 0.0 ignored
Warning: card   PRESS_CONV_THR = 0.5 ignored
Warning: card / ignored
     Reading input from pw_2.in
Warning: card &CELL ignored
Warning: card   CELL_DYNAMICS = 'BFGS' ignored
Warning: card   PRESS = 0.0 ignored
Warning: card   PRESS_CONV_THR = 0.5 ignored
Warning: card / ignored

     initial path length           =  5.4978 bohr
     initial inter-image distance  =  0.6109 bohr
 
     string_method                 =    neb
     restart_mode                  =    from_scratch
     opt_scheme                    =    broyden
     num_of_images                 =    10
     nstep_path                    =    1000
     CI_scheme                     =    no-CI
     first_last_opt                =    T
     use_freezing                  =    F
     ds                            =    0.0756 a.u.
     k_max                         =    0.0131 a.u.
     k_min                         =    0.0050 a.u.
     suggested k_max               =  107.9285 a.u.
     suggested k_min               =   41.1941 a.u.
     path_thr                      =    0.0010 eV / A

     ------------------------------ iteration   1 ------------------------------

     tcpu =      2.4    self-consistency for image   1
     tcpu =    538.2    self-consistency for image   2
     tcpu =   1037.8    self-consistency for image   3
     tcpu =   1490.0    self-consistency for image   4
     tcpu =   1932.3    self-consistency for image   5
     tcpu =   2362.0    self-consistency for image   6
     tcpu =   2780.1    self-consistency for image   7
     tcpu =   3173.8    self-consistency for image   8
     tcpu =   3559.5    self-consistency for image   9
     tcpu =   4008.3    self-consistency for image  10

     activation energy (->) =   2.728906 eV
     activation energy (<-) =   3.287951 eV

     image        energy (eV)        error (eV/A)        frozen

         1    -177387.6023760            0.218014            F
         2    -177387.4128877            0.861581            F
         3    -177386.6933426            2.028268            F
         4    -177385.6588361            3.204409            F
         5    -177384.9367263            3.859976            F
         6    -177384.8734697            3.511867            F
         7    -177385.4121328            2.717949            F
         8    -177386.5335120            2.044324            F
         9    -177387.7028755            1.259670            F
        10    -177388.1614212            0.074683            F

     path length          =  5.498 bohr
     inter-image distance =  0.611 bohr

     ------------------------------ iteration   2 ------------------------------

     tcpu =   4455.2    self-consistency for image   1
     tcpu =   4879.3    self-consistency for image   2
     tcpu =   5302.3    self-consistency for image   3
     tcpu =   5732.2    self-consistency for image   4
     tcpu =   6168.6    self-consistency for image   5
     tcpu =   6597.5    self-consistency for image   6
     tcpu =   7038.0    self-consistency for image   7
     tcpu =   7461.5    self-consistency for image   8
     tcpu =   7879.5    self-consistency for image   9
     tcpu =   8358.3    self-consistency for image  10

     activation energy (->) =   2.726459 eV
     activation energy (<-) =   3.285530 eV

     image        energy (eV)        error (eV/A)        frozen

         1    -177387.6023945            0.216925            F
         2    -177387.4130647            0.859141            F
         3    -177386.6941473            2.026462            F
         4    -177385.6606666            3.199872            F
         5    -177384.9391187            3.854825            F
         6    -177384.8759357            3.506098            F
         7    -177385.4141887            2.710613            F
         8    -177386.5346658            2.042168            F
         9    -177387.7031926            1.257767            F
        10    -177388.1614653            0.074568            F

     path length          =  5.498 bohr
     inter-image distance =  0.611 bohr

     ------------------------------ iteration   3 ------------------------------

     tcpu =   8775.0    self-consistency for image   1
     tcpu =   9223.0    self-consistency for image   2
     tcpu =   9712.5    self-consistency for image   3
     tcpu =  10230.0    self-consistency for image   4
     tcpu =  10683.5    self-consistency for image   5
     tcpu =  11084.1    self-consistency for image   6
     tcpu =  11569.0    self-consistency for image   7
     tcpu =  12108.7    self-consistency for image   8
     tcpu =  12499.5    self-consistency for image   9
     tcpu =  12917.6    self-consistency for image  10

     activation energy (->) =   2.724019 eV
     activation energy (<-) =   3.283020 eV

     image        energy (eV)        error (eV/A)        frozen

         1    -177387.6024080            0.216757            F
         2    -177387.4132501            0.857959            F
         3    -177386.6949443            2.024879            F
         4    -177385.6624827            3.195783            F
         5    -177384.9414962            3.847949            F
         6    -177384.8783894            3.500122            F
         7    -177385.4162334            2.704213            F
         8    -177386.5358076            2.040687            F
         9    -177387.7035112            1.255698            F
        10    -177388.1614095            0.074380            F

     path length          =  5.498 bohr
     inter-image distance =  0.611 bohr

     ------------------------------ iteration   4 ------------------------------

     tcpu =  13450.4    self-consistency for image   1
     tcpu =  13939.8    self-consistency for image   2
     tcpu =  14394.9    self-consistency for image   3
     tcpu =  14823.4    self-consistency for image   4
     tcpu =  15251.0    self-consistency for image   5
     tcpu =  15752.4    self-consistency for image   6
     tcpu =  16270.8    self-consistency for image   7
     tcpu =  16816.4    self-consistency for image   8
     tcpu =  17240.0    self-consistency for image   9
     tcpu =  17649.1    self-consistency for image  10

     activation energy (->) =   2.719190 eV
     activation energy (<-) =   3.278233 eV

     image        energy (eV)        error (eV/A)        frozen

         1    -177387.6024287            0.215395            F
         2    -177387.4136137            0.858368            F
         3    -177386.6965291            2.021070            F
         4    -177385.6660767            3.185644            F
         5    -177384.9461980            3.832173            F
         6    -177384.8832386            3.486205            F
         7    -177385.4202824            2.679932            F
         8    -177386.5380734            2.036998            F
         9    -177387.7041324            1.251996            F
        10    -177388.1614712            0.074232            F

     path length          =  5.498 bohr
     inter-image distance =  0.611 bohr

     ------------------------------ iteration   5 ------------------------------

     tcpu =  18158.8    self-consistency for image   1
     tcpu =  18554.4    self-consistency for image   2
     tcpu =  18971.5    self-consistency for image   3
     tcpu =  19492.6    self-consistency for image   4
     tcpu =  20048.2    self-consistency for image   5
     tcpu =  20551.2    self-consistency for image   6
     tcpu =  21024.5    self-consistency for image   7
     tcpu =  21513.6    self-consistency for image   8
     tcpu =  22065.8    self-consistency for image   9
     tcpu =  22611.9    self-consistency for image  10

     activation energy (->) =   2.704779 eV
     activation energy (<-) =   3.263689 eV

     image        energy (eV)        error (eV/A)        frozen

         1    -177387.6025059            0.213131            F
         2    -177387.4146785            0.854850            F
         3    -177386.7012396            2.012515            F
         4    -177385.6768157            3.165497            F
         5    -177384.9602463            3.799873            F
         6    -177384.8977273            3.456101            F
         7    -177385.4323366            2.659056            F
         8    -177386.5448050            2.029829            F
         9    -177387.7059681            1.240501            F
        10    -177388.1614159            0.074303            F

     path length          =  5.498 bohr
     inter-image distance =  0.611 bohr

     ------------------------------ iteration   6 ------------------------------

     tcpu =  23014.9    self-consistency for image   1
     tcpu =  23455.3    self-consistency for image   2
     tcpu =  23994.2    self-consistency for image   3
     tcpu =  24587.8    self-consistency for image   4
     tcpu =  25173.3    self-consistency for image   5
     tcpu =  25717.2    self-consistency for image   6
     tcpu =  26212.5    self-consistency for image   7
     tcpu =  26696.9    self-consistency for image   8
     tcpu =  27161.9    self-consistency for image   9
     tcpu =  27628.1    self-consistency for image  10

     activation energy (->) =   2.648853 eV
     activation energy (<-) =   3.207595 eV

     image        energy (eV)        error (eV/A)        frozen

         1    -177387.6027864            0.202673            F
         2    -177387.4188648            0.846505            F
         3    -177386.7197063            1.974128            F
         4    -177385.7186869            3.069431            F
         5    -177385.0148272            3.652389            F
         6    -177384.9539333            3.320340            F
         7    -177385.4790698            2.518070            F
         8    -177386.5709568            1.993315            F
         9    -177387.7131541            1.202165            F
        10    -177388.1615282            0.072621            F

     path length          =  5.497 bohr
     inter-image distance =  0.611 bohr

     ------------------------------ iteration   7 ------------------------------

     tcpu =  28149.0    self-consistency for image   1
     tcpu =  28659.9    self-consistency for image   2
     tcpu =  29100.1    self-consistency for image   3
     tcpu =  29589.2    self-consistency for image   4
     tcpu =  30095.5    self-consistency for image   5
     tcpu =  30640.9    self-consistency for image   6
     tcpu =  31216.5    self-consistency for image   7
     tcpu =  31788.9    self-consistency for image   8
     tcpu =  32381.5    self-consistency for image   9
     tcpu =  32949.6    self-consistency for image  10

     activation energy (->) =   2.521273 eV
     activation energy (<-) =   3.079490 eV

     image        energy (eV)        error (eV/A)        frozen

         1    -177387.6034505            0.179780            F
         2    -177387.4287304            0.821085            F
         3    -177386.7627633            1.881480            F
         4    -177385.8154666            2.848051            F
         5    -177385.1398488            3.313851            F
         6    -177385.0821775            3.009973            F
         7    -177385.5852521            2.224229            F
         8    -177386.6305655            1.908065            F
         9    -177387.7296618            1.105441            F
        10    -177388.1616676            0.068861            F

     path length          =  5.499 bohr
     inter-image distance =  0.611 bohr

     ------------------------------ iteration   8 ------------------------------

     tcpu =  33390.0    self-consistency for image   1
     tcpu =  33832.8    self-consistency for image   2
     tcpu =  34285.0    self-consistency for image   3
     tcpu =  34808.0    self-consistency for image   4
     tcpu =  35324.8    self-consistency for image   5
     tcpu =  35901.8    self-consistency for image   6
     tcpu =  36598.7    self-consistency for image   7
     tcpu =  37192.0    self-consistency for image   8
     tcpu =  37693.1    self-consistency for image   9
     tcpu =  38163.7    self-consistency for image  10

     activation energy (->) =   2.397010 eV
     activation energy (<-) =   2.954753 eV

     image        energy (eV)        error (eV/A)        frozen

         1    -177387.6041072            0.172523            F
         2    -177387.4388105            0.793098            F
         3    -177386.8061352            1.779250            F
         4    -177385.9116810            2.619173            F
         5    -177385.2624807            2.977987            F
         6    -177385.2070974            2.696672            F
         7    -177385.6879089            2.059896            F
         8    -177386.6885304            1.818051            F
         9    -177387.7459177            1.005021            F
        10    -177388.1618502            0.067798            F

     path length          =  5.504 bohr
     inter-image distance =  0.612 bohr

     ------------------------------ iteration   9 ------------------------------

     tcpu =  38633.2    self-consistency for image   1
     tcpu =  39128.9    self-consistency for image   2
     tcpu =  39658.6    self-consistency for image   3
     tcpu =  40161.6    self-consistency for image   4
     tcpu =  40650.7    self-consistency for image   5
     tcpu =  41195.1    self-consistency for image   6
     tcpu =  41720.0    self-consistency for image   7
     tcpu =  42205.4    self-consistency for image   8
     tcpu =  42660.0    self-consistency for image   9
     tcpu =  43113.2    self-consistency for image  10

     activation energy (->) =   2.292521 eV
     activation energy (<-) =   2.849855 eV

     image        energy (eV)        error (eV/A)        frozen

         1    -177387.6046712            0.189587            F
         2    -177387.4477442            0.766489            F
         3    -177386.8440286            1.690069            F
         4    -177385.9944550            2.415199            F
         5    -177385.3664659            2.685004            F
         6    -177385.3121502            2.421478            F
         7    -177385.7735167            1.913881            F
         8    -177386.7372320            1.735470            F
         9    -177387.7597762            0.914368            F
        10    -177388.1620049            0.064989            F

     path length          =  5.511 bohr
     inter-image distance =  0.612 bohr

     ------------------------------ iteration  10 ------------------------------

     tcpu =  43629.5    self-consistency for image   1
     tcpu =  44059.6    self-consistency for image   2
     tcpu =  44446.2    self-consistency for image   3
     tcpu =  44970.7    self-consistency for image   4
     tcpu =  45532.4    self-consistency for image   5
     tcpu =  46108.0    self-consistency for image   6
     tcpu =  46637.2    self-consistency for image   7
     tcpu =  47111.6    self-consistency for image   8
     tcpu =  47553.3    self-consistency for image   9
     tcpu =  48027.4    self-consistency for image  10

     activation energy (->) =   2.269854 eV
     activation energy (<-) =   2.827105 eV

     image        energy (eV)        error (eV/A)        frozen

         1    -177387.6048004            0.193021            F
         2    -177387.4497735            0.755669            F
         3    -177386.8525507            1.671514            F
         4    -177386.0127764            2.369753            F
         5    -177385.3891848            2.620216            F
         6    -177385.3349467            2.359128            F
         7    -177385.7920170            1.880600            F
         8    -177386.7478621            1.719010            F
         9    -177387.7628491            0.894281            F
        10    -177388.1620517            0.064796            F

     path length          =  5.513 bohr
     inter-image distance =  0.613 bohr

     ------------------------------ iteration  11 ------------------------------

     tcpu =  48542.8    self-consistency for image   1
     tcpu =  48944.2    self-consistency for image   2
     tcpu =  49337.9    self-consistency for image   3
     tcpu =  49855.0    self-consistency for image   4
     tcpu =  50403.5    self-consistency for image   5
     tcpu =  50914.8    self-consistency for image   6
     tcpu =  51366.7    self-consistency for image   7
     tcpu =  51781.0    self-consistency for image   8
     tcpu =  52224.5    self-consistency for image   9
     tcpu =  52683.6    self-consistency for image  10

     activation energy (->) =   2.260854 eV
     activation energy (<-) =   2.818024 eV

     image        energy (eV)        error (eV/A)        frozen

         1    -177387.6048462            0.194389            F
         2    -177387.4506246            0.755400            F
         3    -177386.8560487            1.658535            F
         4    -177386.0201718            2.352829            F
         5    -177385.3982407            2.595787            F
         6    -177385.3439924            2.337020            F
         7    -177385.7993505            1.868228            F
         8    -177386.7521615            1.708694            F
         9    -177387.7641232            0.885089            F
        10    -177388.1620168            0.064923            F

     path length          =  5.514 bohr
     inter-image distance =  0.613 bohr

     ------------------------------ iteration  12 ------------------------------

     tcpu =  53136.5    self-consistency for image   1
     tcpu =  53601.4    self-consistency for image   2
     tcpu =  54078.0    self-consistency for image   3
     tcpu =  54600.6    self-consistency for image   4
     tcpu =  55047.7    self-consistency for image   5
     tcpu =  55488.6    self-consistency for image   6
     tcpu =  55957.4    self-consistency for image   7
     tcpu =  56496.9    self-consistency for image   8
     tcpu =  56998.1    self-consistency for image   9
     tcpu =  57470.9    self-consistency for image  10

     activation energy (->) =   2.252581 eV
     activation energy (<-) =   2.809777 eV

     image        energy (eV)        error (eV/A)        frozen

         1    -177387.6048930            0.194911            F
         2    -177387.4514382            0.753493            F
         3    -177386.8593958            1.650213            F
         4    -177386.0270937            2.336411            F
         5    -177385.4065904            2.572359            F
         6    -177385.3523120            2.315685            F
         7    -177385.8061047            1.855678            F
         8    -177386.7561953            1.701446            F
         9    -177387.7653414            0.884052            F
        10    -177388.1620893            0.064609            F

     path length          =  5.515 bohr
     inter-image distance =  0.613 bohr

     ------------------------------ iteration  13 ------------------------------

     tcpu =  57905.4    self-consistency for image   1
     tcpu =  58289.0    self-consistency for image   2
     tcpu =  58681.2    self-consistency for image   3
     tcpu =  59076.9    self-consistency for image   4
     tcpu =  59480.9    self-consistency for image   5
     tcpu =  59901.7    self-consistency for image   6
     tcpu =  60319.7    self-consistency for image   7
     tcpu =  60732.6    self-consistency for image   8
     tcpu =  61133.6    self-consistency for image   9
     tcpu =  61535.2    self-consistency for image  10

     activation energy (->) =   2.243755 eV
     activation energy (<-) =   2.800859 eV

     image        energy (eV)        error (eV/A)        frozen

         1    -177387.6049480            0.195381            F
         2    -177387.4523434            0.750152            F
         3    -177386.8631233            1.642923            F
         4    -177386.0346017            2.317691            F
         5    -177385.4155355            2.548468            F
         6    -177385.3611934            2.292668            F
         7    -177385.8133183            1.842811            F
         8    -177386.7605829            1.692380            F
         9    -177387.7666959            0.882810            F
        10    -177388.1620525            0.064425            F

     path length          =  5.516 bohr
     inter-image distance =  0.613 bohr

     ------------------------------ iteration  14 ------------------------------

     tcpu =  61913.6    self-consistency for image   1
     tcpu =  62318.4    self-consistency for image   2
     tcpu =  62721.3    self-consistency for image   3
     tcpu =  63161.3    self-consistency for image   4
     tcpu =  63626.3    self-consistency for image   5
     tcpu =  64081.5    self-consistency for image   6
     tcpu =  64541.8    self-consistency for image   7
     tcpu =  64990.5    self-consistency for image   8
     tcpu =  65435.8    self-consistency for image   9
     tcpu =  65838.7    self-consistency for image  10

     activation energy (->) =   2.206986 eV
     activation energy (<-) =   2.763947 eV

     image        energy (eV)        error (eV/A)        frozen

         1    -177387.6051853            0.197704            F
         2    -177387.4561808            0.740483            F
         3    -177386.8787928            1.603705            F
         4    -177386.0661347            2.239062            F
         5    -177385.4529189            2.445234            F
         6    -177385.3981994            2.196786            F
         7    -177385.8433775            1.787210            F
         8    -177386.7789640            1.654856            F
         9    -177387.7724036            0.879750            F
        10    -177388.1621462            0.062497            F

     path length          =  5.520 bohr
     inter-image distance =  0.613 bohr

     ------------------------------ iteration  15 ------------------------------

     tcpu =  66219.7    self-consistency for image   1
     tcpu =  66619.7    self-consistency for image   2
     tcpu =  67037.4    self-consistency for image   3
     tcpu =  67488.0    self-consistency for image   4
     tcpu =  67945.8    self-consistency for image   5
     tcpu =  68464.4    self-consistency for image   6
     tcpu =  68983.5    self-consistency for image   7
     tcpu =  69492.5    self-consistency for image   8
     tcpu =  69950.5    self-consistency for image   9
     tcpu =  70386.9    self-consistency for image  10

     activation energy (->) =   2.128356 eV
     activation energy (<-) =   2.684911 eV

     image        energy (eV)        error (eV/A)        frozen

         1    -177387.6057017            0.205631            F
         2    -177387.4646612            0.712108            F
         3    -177386.9130590            1.513958            F
         4    -177386.1344937            2.067795            F
         5    -177385.5332946            2.223256            F
         6    -177385.4773459            1.986365            F
         7    -177385.9076104            1.663488            F
         8    -177386.8184345            1.571893            F
         9    -177387.7847600            0.863245            F
        10    -177388.1622568            0.059569            F

     path length          =  5.530 bohr
     inter-image distance =  0.614 bohr

     ------------------------------ iteration  16 ------------------------------

     tcpu =  70771.1    self-consistency for image   1
     tcpu =  71294.3    self-consistency for image   2
     tcpu =  71823.1    self-consistency for image   3
     tcpu =  72390.2    self-consistency for image   4
     tcpu =  72956.3    self-consistency for image   5
     tcpu =  73516.8    self-consistency for image   6
     tcpu =  74059.2    self-consistency for image   7
     tcpu =  74572.9    self-consistency for image   8
     tcpu =  75058.3    self-consistency for image   9
     tcpu =  75524.4    self-consistency for image  10

     activation energy (->) =   2.059587 eV
     activation energy (<-) =   2.615810 eV

     image        energy (eV)        error (eV/A)        frozen

         1    -177387.6061781            0.211245            F
         2    -177387.4723649            0.686558            F
         3    -177386.9439810            1.429106            F
         4    -177386.1954710            1.908816            F
         5    -177385.6041568            2.019720            F
         6    -177385.5465910            1.793665            F
         7    -177385.9637197            1.549757            F
         8    -177386.8531583            1.493602            F
         9    -177387.7957420            0.849403            F
        10    -177388.1624008            0.058045            F

     path length          =  5.542 bohr
     inter-image distance =  0.616 bohr

     ------------------------------ iteration  17 ------------------------------

     tcpu =  76004.0    self-consistency for image   1
     tcpu =  76421.4    self-consistency for image   2
     tcpu =  76829.6    self-consistency for image   3
     tcpu =  77273.4    self-consistency for image   4
     tcpu =  77745.1    self-consistency for image   5
     tcpu =  78248.0    self-consistency for image   6
     tcpu =  78784.8    self-consistency for image   7
     tcpu =  79361.0    self-consistency for image   8
     tcpu =  79874.8    self-consistency for image   9
     tcpu =  80395.5    self-consistency for image  10

     activation energy (->) =   2.007021 eV
     activation energy (<-) =   2.562955 eV

     image        energy (eV)        error (eV/A)        frozen

         1    -177387.6065540            0.211179            F
         2    -177387.4784792            0.663642            F
         3    -177386.9683663            1.361095            F
         4    -177386.2429936            1.779991            F
         5    -177385.6587797            1.857765            F
         6    -177385.5995329            1.638861            F
         7    -177386.0066062            1.457908            F
         8    -177386.8798738            1.429763            F
         9    -177387.8042767            0.837063            F
        10    -177388.1624876            0.055726            F

     path length          =  5.553 bohr
     inter-image distance =  0.617 bohr

     ------------------------------ iteration  18 ------------------------------

     tcpu =  80879.6    self-consistency for image   1
     tcpu =  81363.3    self-consistency for image   2
     tcpu =  81762.0    self-consistency for image   3
     tcpu =  82151.3    self-consistency for image   4
     tcpu =  82590.3    self-consistency for image   5
     tcpu =  83074.6    self-consistency for image   6
     tcpu =  83602.2    self-consistency for image   7
     tcpu =  84136.0    self-consistency for image   8
     tcpu =  84633.0    self-consistency for image   9
     tcpu =  85023.4    self-consistency for image  10

     activation energy (->) =   1.995973 eV
     activation energy (<-) =   2.551862 eV

     image        energy (eV)        error (eV/A)        frozen

         1    -177387.6066414            0.214862            F
         2    -177387.4798142            0.655705            F
         3    -177386.9736780            1.348613            F
         4    -177386.2531712            1.755258            F
         5    -177385.6703381            1.823791            F
         6    -177385.6106683            1.606124            F
         7    -177386.0156452            1.439100            F
         8    -177386.8855839            1.417060            F
         9    -177387.8061152            0.834227            F
        10    -177388.1625305            0.056608            F

     path length          =  5.556 bohr
     inter-image distance =  0.617 bohr

     ------------------------------ iteration  19 ------------------------------

     tcpu =  85394.4    self-consistency for image   1
     tcpu =  85880.9    self-consistency for image   2
     tcpu =  86405.5    self-consistency for image   3
     tcpu =  86817.3    self-consistency for image   4
     tcpu =  87232.7    self-consistency for image   5
     tcpu =  87639.7    self-consistency for image   6
     tcpu =  88069.4    self-consistency for image   7
     tcpu =  88478.5    self-consistency for image   8
     tcpu =  88869.4    self-consistency for image   9
     tcpu =  89260.7    self-consistency for image  10

     activation energy (->) =   1.991250 eV
     activation energy (<-) =   2.547078 eV

     image        energy (eV)        error (eV/A)        frozen

         1    -177387.6066864            0.215512            F
         2    -177387.4804238            0.654670            F
         3    -177386.9760578            1.338240            F
         4    -177386.2576235            1.742302            F
         5    -177385.6753095            1.807723            F
         6    -177385.6154364            1.592864            F
         7    -177386.0195540            1.430194            F
         8    -177386.8880788            1.405493            F
         9    -177387.8069776            0.832931            F
        10    -177388.1625141            0.056391            F

     path length          =  5.557 bohr
     inter-image distance =  0.617 bohr

     ------------------------------ iteration  20 ------------------------------

     tcpu =  89674.0    self-consistency for image   1
     tcpu =  90069.0    self-consistency for image   2
     tcpu =  90456.5    self-consistency for image   3
     tcpu =  90859.3    self-consistency for image   4
     tcpu =  91261.6    self-consistency for image   5
     tcpu =  91683.2    self-consistency for image   6
     tcpu =  92111.8    self-consistency for image   7
     tcpu =  92557.6    self-consistency for image   8
     tcpu =  92961.3    self-consistency for image   9
     tcpu =  93358.7    self-consistency for image  10

     activation energy (->) =   1.986354 eV
     activation energy (<-) =   2.542174 eV

     image        energy (eV)        error (eV/A)        frozen

         1    -177387.6067286            0.214708            F
         2    -177387.4810802            0.652478            F
         3    -177386.9786155            1.331610            F
         4    -177386.2623135            1.730973            F
         5    -177385.6804775            1.793670            F
         6    -177385.6203749            1.579465            F
         7    -177386.0236194            1.422260            F
         8    -177386.8907538            1.399213            F
         9    -177387.8078994            0.831101            F
        10    -177388.1625493            0.056384            F

     path length          =  5.558 bohr
     inter-image distance =  0.618 bohr

     ------------------------------ iteration  21 ------------------------------

     tcpu =  93745.0    self-consistency for image   1
     tcpu =  94146.7    self-consistency for image   2
     tcpu =  94541.0    self-consistency for image   3
     tcpu =  94942.5    self-consistency for image   4
     tcpu =  95352.1    self-consistency for image   5
     tcpu =  95764.0    self-consistency for image   6
     tcpu =  96184.9    self-consistency for image   7
     tcpu =  96599.1    self-consistency for image   8
     tcpu =  96990.4    self-consistency for image   9
     tcpu =  97374.1    self-consistency for image  10

     activation energy (->) =   1.980479 eV
     activation energy (<-) =   2.536264 eV

     image        energy (eV)        error (eV/A)        frozen

         1    -177387.6067790            0.213417            F
         2    -177387.4818991            0.649519            F
         3    -177386.9818126            1.323842            F
         4    -177386.2680251            1.715159            F
         5    -177385.6867016            1.776268            F
         6    -177385.6262998            1.563027            F
         7    -177386.0285220            1.415546            F
         8    -177386.8940213            1.390597            F
         9    -177387.8090572            0.828507            F
        10    -177388.1625639            0.055992            F

     path length          =  5.559 bohr
     inter-image distance =  0.618 bohr

     ------------------------------ iteration  22 ------------------------------

     tcpu =  97801.3    self-consistency for image   1
     tcpu =  98188.4    self-consistency for image   2
     tcpu =  98606.7    self-consistency for image   3
     tcpu =  99042.5    self-consistency for image   4
     tcpu =  99481.7    self-consistency for image   5
     tcpu =  99936.5    self-consistency for image   6
     tcpu = 100397.7    self-consistency for image   7
     tcpu = 100841.5    self-consistency for image   8
     tcpu = 101275.0    self-consistency for image   9
     tcpu = 101667.7    self-consistency for image  10

     activation energy (->) =   1.954791 eV
     activation energy (<-) =   2.510396 eV

     image        energy (eV)        error (eV/A)        frozen

         1    -177387.6070316            0.208795            F
         2    -177387.4855315            0.637837            F
         3    -177386.9959479            1.284999            F
         4    -177386.2932305            1.648205            F
         5    -177385.7140042            1.698230            F
         6    -177385.6522410            1.508832            F
         7    -177386.0500511            1.383168            F
         8    -177386.9085381            1.355919            F
         9    -177387.8141999            0.820233            F
        10    -177388.1626366            0.054123            F

     path length          =  5.566 bohr
     inter-image distance =  0.618 bohr

     ------------------------------ iteration  23 ------------------------------

     tcpu = 102103.3    self-consistency for image   1
     tcpu = 102560.1    self-consistency for image   2
     tcpu = 102978.1    self-consistency for image   3
     tcpu = 103437.7    self-consistency for image   4
     tcpu = 103912.5    self-consistency for image   5
     tcpu = 104419.8    self-consistency for image   6
     tcpu = 104923.8    self-consistency for image   7
     tcpu = 105402.6    self-consistency for image   8
     tcpu = 105876.4    self-consistency for image   9
     tcpu = 106304.2    self-consistency for image  10

     activation energy (->) =   1.903048 eV
     activation energy (<-) =   2.458226 eV

     image        energy (eV)        error (eV/A)        frozen

         1    -177387.6075520            0.204267            F
         2    -177387.4930180            0.609363            F
         3    -177387.0250445            1.201399            F
         4    -177386.3446844            1.509227            F
         5    -177385.7693454            1.540476            F
         6    -177385.7045036            1.431755            F
         7    -177386.0935773            1.315505            F
         8    -177386.9379812            1.276751            F
         9    -177387.8247344            0.793423            F
        10    -177388.1627300            0.051519            F

     path length          =  5.581 bohr
     inter-image distance =  0.620 bohr

     ------------------------------ iteration  24 ------------------------------

     tcpu = 106741.6    self-consistency for image   1
     tcpu = 107254.7    self-consistency for image   2
     tcpu = 107745.2    self-consistency for image   3
     tcpu = 108254.0    self-consistency for image   4
     tcpu = 108725.5    self-consistency for image   5
     tcpu = 109228.1    self-consistency for image   6
     tcpu = 109740.4    self-consistency for image   7
     tcpu = 110213.6    self-consistency for image   8
     tcpu = 110662.8    self-consistency for image   9
     tcpu = 111149.6    self-consistency for image  10

     activation energy (->) =   1.861906 eV
     activation energy (<-) =   2.416781 eV

     image        energy (eV)        error (eV/A)        frozen

         1    -177387.6079828            0.191966            F
         2    -177387.4990896            0.585373            F
         3    -177387.0488118            1.131220            F
         4    -177386.3863399            1.393230            F
         5    -177385.8136982            1.408025            F
         6    -177385.7460767            1.364736            F
         7    -177386.1283365            1.258074            F
         8    -177386.9616773            1.209602            F
         9    -177387.8332882            0.772717            F
        10    -177388.1628575            0.050617            F

     path length          =  5.595 bohr
     inter-image distance =  0.622 bohr

     ------------------------------ iteration  25 ------------------------------

     tcpu = 111670.9    self-consistency for image   1
     tcpu = 112049.3    self-consistency for image   2
     tcpu = 112459.1    self-consistency for image   3
     tcpu = 112932.8    self-consistency for image   4
     tcpu = 113459.4    self-consistency for image   5
     tcpu = 113949.0    self-consistency for image   6
     tcpu = 114455.9    self-consistency for image   7
     tcpu = 114930.1    self-consistency for image   8
     tcpu = 115378.9    self-consistency for image   9
     tcpu = 115813.2    self-consistency for image  10

     activation energy (->) =   1.832973 eV
     activation energy (<-) =   2.387614 eV

     image        energy (eV)        error (eV/A)        frozen

         1    -177387.6083114            0.189228            F
         2    -177387.5034378            0.566641            F
         3    -177387.0659778            1.080438            F
         4    -177386.4161439            1.309015            F
         5    -177385.8451500            1.308942            F
         6    -177385.7753384            1.314692            F
         7    -177386.1529119            1.215652            F
         8    -177386.9785534            1.159789            F
         9    -177387.8394311            0.756547            F
        10    -177388.1629523            0.049232            F

     path length          =  5.607 bohr
     inter-image distance =  0.623 bohr

     ------------------------------ iteration  26 ------------------------------

     tcpu = 116196.0    self-consistency for image   1
     tcpu = 116621.8    self-consistency for image   2
     tcpu = 117038.9    self-consistency for image   3
     tcpu = 117450.3    self-consistency for image   4
     tcpu = 117859.4    self-consistency for image   5
     tcpu = 118284.1    self-consistency for image   6
     tcpu = 118711.8    self-consistency for image   7
     tcpu = 119132.3    self-consistency for image   8
     tcpu = 119526.1    self-consistency for image   9
     tcpu = 119904.2    self-consistency for image  10

     activation energy (->) =   1.827045 eV
     activation energy (<-) =   2.381577 eV

     image        energy (eV)        error (eV/A)        frozen

         1    -177387.6083820            0.189936            F
         2    -177387.5043481            0.560953            F
         3    -177387.0696028            1.068084            F
         4    -177386.4223461            1.292333            F
         5    -177385.8516162            1.297834            F
         6    -177385.7813366            1.305181            F
         7    -177386.1579714            1.207105            F
         8    -177386.9820890            1.150557            F
         9    -177387.8407343            0.753445            F
        10    -177388.1629138            0.049562            F

     path length          =  5.609 bohr
     inter-image distance =  0.623 bohr

     ------------------------------ iteration  27 ------------------------------

     tcpu = 120274.8    self-consistency for image   1
     tcpu = 120663.2    self-consistency for image   2
     tcpu = 121056.4    self-consistency for image   3
     tcpu = 121453.2    self-consistency for image   4
     tcpu = 121844.3    self-consistency for image   5
     tcpu = 122263.5    self-consistency for image   6
     tcpu = 122675.1    self-consistency for image   7
     tcpu = 123065.8    self-consistency for image   8
     tcpu = 123452.1    self-consistency for image   9
     tcpu = 123836.5    self-consistency for image  10

     activation energy (->) =   1.824344 eV
     activation energy (<-) =   2.378903 eV

     image        energy (eV)        error (eV/A)        frozen

         1    -177387.6084195            0.189891            F
         2    -177387.5047900            0.559687            F
         3    -177387.0713360            1.062337            F
         4    -177386.4252173            1.280319            F
         5    -177385.8545987            1.293183            F
         6    -177385.7840750            1.301562            F
         7    -177386.1603150            1.200980            F
         8    -177386.9837576            1.142304            F
         9    -177387.8413795            0.751712            F
        10    -177388.1629784            0.049035            F

     path length          =  5.611 bohr
     inter-image distance =  0.623 bohr

     ------------------------------ iteration  28 ------------------------------

     tcpu = 124228.5    self-consistency for image   1
     tcpu = 124631.8    self-consistency for image   2
     tcpu = 125027.9    self-consistency for image   3
     tcpu = 125418.9    self-consistency for image   4
     tcpu = 125819.3    self-consistency for image   5
     tcpu = 126236.5    self-consistency for image   6
     tcpu = 126652.4    self-consistency for image   7
     tcpu = 127058.1    self-consistency for image   8
     tcpu = 127443.3    self-consistency for image   9
     tcpu = 127828.1    self-consistency for image  10

     activation energy (->) =   1.821247 eV
     activation energy (<-) =   2.375749 eV

     image        energy (eV)        error (eV/A)        frozen

         1    -177387.6084543            0.187853            F
         2    -177387.5053101            0.557655            F
         3    -177387.0733818            1.056953            F
         4    -177386.4285720            1.275314            F
         5    -177385.8580000            1.287645            F
         6    -177385.7872076            1.294068            F
         7    -177386.1630067            1.198892            F
         8    -177386.9857048            1.136324            F
         9    -177387.8421454            0.749347            F
        10    -177388.1629571            0.048989            F

     path length          =  5.612 bohr
     inter-image distance =  0.624 bohr

     ------------------------------ iteration  29 ------------------------------

     tcpu = 128211.0    self-consistency for image   1
     tcpu = 128621.3    self-consistency for image   2
     tcpu = 129019.4    self-consistency for image   3
     tcpu = 129417.7    self-consistency for image   4
     tcpu = 129817.9    self-consistency for image   5
     tcpu = 130227.0    self-consistency for image   6
     tcpu = 130642.0    self-consistency for image   7
     tcpu = 131057.3    self-consistency for image   8
     tcpu = 131466.6    self-consistency for image   9
     tcpu = 131858.0    self-consistency for image  10

     activation energy (->) =   1.817148 eV
     activation energy (<-) =   2.371624 eV

     image        energy (eV)        error (eV/A)        frozen

         1    -177387.6085107            0.186995            F
         2    -177387.5060199            0.554624            F
         3    -177387.0761580            1.048247            F
         4    -177386.4330517            1.263464            F
         5    -177385.8625304            1.279314            F
         6    -177385.7913630            1.285399            F
         7    -177386.1666117            1.190756            F
         8    -177386.9883831            1.130516            F
         9    -177387.8432020            0.745999            F
        10    -177388.1629865            0.048535            F

     path length          =  5.614 bohr
     inter-image distance =  0.624 bohr

     ------------------------------ iteration  30 ------------------------------

     tcpu = 132229.9    self-consistency for image   1
     tcpu = 132611.1    self-consistency for image   2
     tcpu = 133021.7    self-consistency for image   3
     tcpu = 133452.7    self-consistency for image   4
     tcpu = 133891.2    self-consistency for image   5
     tcpu = 134343.7    self-consistency for image   6
     tcpu = 134805.2    self-consistency for image   7
     tcpu = 135244.5    self-consistency for image   8
     tcpu = 135684.4    self-consistency for image   9
     tcpu = 136090.3    self-consistency for image  10

     activation energy (->) =   1.798588 eV
     activation energy (<-) =   2.352852 eV

     image        energy (eV)        error (eV/A)        frozen

         1    -177387.6087741            0.180491            F
         2    -177387.5092696            0.542966            F
         3    -177387.0889818            1.013249            F
         4    -177386.4535280            1.207090            F
         5    -177385.8831099            1.242525            F
         6    -177385.8101861            1.248029            F
         7    -177386.1829787            1.157879            F
         8    -177387.0005414            1.093614            F
         9    -177387.8480672            0.733762            F
        10    -177388.1630381            0.048282            F

     path length          =  5.622 bohr
     inter-image distance =  0.625 bohr

     ------------------------------ iteration  31 ------------------------------

     tcpu = 136474.5    self-consistency for image   1
     tcpu = 136877.8    self-consistency for image   2
     tcpu = 137294.1    self-consistency for image   3
     tcpu = 137754.1    self-consistency for image   4
     tcpu = 138243.0    self-consistency for image   5
     tcpu = 138773.8    self-consistency for image   6
     tcpu = 139321.7    self-consistency for image   7
     tcpu = 139826.9    self-consistency for image   8
     tcpu = 140300.8    self-consistency for image   9
     tcpu = 140734.5    self-consistency for image  10

     activation energy (->) =   1.763442 eV
     activation energy (<-) =   2.317303 eV

     image        energy (eV)        error (eV/A)        frozen

         1    -177387.6092863            0.175328            F
         2    -177387.5155058            0.516481            F
         3    -177387.1136893            0.938974            F
         4    -177386.4927886            1.097707            F
         5    -177385.9222946            1.171884            F
         6    -177385.8458446            1.173333            F
         7    -177386.2141062            1.094786            F
         8    -177387.0238088            1.022187            F
         9    -177387.8574514            0.701113            F
        10    -177388.1631480            0.044368            F

     path length          =  5.640 bohr
     inter-image distance =  0.627 bohr

     ------------------------------ iteration  32 ------------------------------

     tcpu = 141120.2    self-consistency for image   1
     tcpu = 141509.2    self-consistency for image   2
     tcpu = 141952.5    self-consistency for image   3
     tcpu = 142388.0    self-consistency for image   4
     tcpu = 142822.7    self-consistency for image   5
     tcpu = 143288.0    self-consistency for image   6
     tcpu = 143759.4    self-consistency for image   7
     tcpu = 144206.7    self-consistency for image   8
     tcpu = 144657.7    self-consistency for image   9
     tcpu = 145084.3    self-consistency for image  10

     activation energy (->) =   1.737725 eV
     activation energy (<-) =   2.291304 eV

     image        energy (eV)        error (eV/A)        frozen

         1    -177387.6096750            0.162973            F
         2    -177387.5201316            0.495536            F
         3    -177387.1322169            0.885109            F
         4    -177386.5220104            1.015035            F
         5    -177385.9511776            1.116113            F
         6    -177385.8719499            1.114856            F
         7    -177386.2370136            1.044501            F
         8    -177387.0410843            0.967753            F
         9    -177387.8644825            0.677684            F
        10    -177388.1632540            0.043564            F

     path length          =  5.655 bohr
     inter-image distance =  0.628 bohr

     ------------------------------ iteration  33 ------------------------------

     tcpu = 145467.7    self-consistency for image   1
     tcpu = 145871.3    self-consistency for image   2
     tcpu = 146293.8    self-consistency for image   3
     tcpu = 146719.3    self-consistency for image   4
     tcpu = 147159.7    self-consistency for image   5
     tcpu = 147611.4    self-consistency for image   6
     tcpu = 148060.0    self-consistency for image   7
     tcpu = 148505.4    self-consistency for image   8
     tcpu = 148953.5    self-consistency for image   9
     tcpu = 149354.3    self-consistency for image  10

     activation energy (->) =   1.720977 eV
     activation energy (<-) =   2.274339 eV

     image        energy (eV)        error (eV/A)        frozen

         1    -177387.6099467            0.160189            F
         2    -177387.5231944            0.481548            F
         3    -177387.1445585            0.845700            F
         4    -177386.5413421            0.958364            F
         5    -177385.9701428            1.077035            F
         6    -177385.8889698            1.075854            F
         7    -177386.2520347            1.011093            F
         8    -177387.0524941            0.929378            F
         9    -177387.8691627            0.661795            F
        10    -177388.1633085            0.042327            F

     path length          =  5.666 bohr
     inter-image distance =  0.630 bohr

     ------------------------------ iteration  34 ------------------------------

     tcpu = 149730.1    self-consistency for image   1
     tcpu = 150107.4    self-consistency for image   2
     tcpu = 150506.6    self-consistency for image   3
     tcpu = 150911.7    self-consistency for image   4
     tcpu = 151313.2    self-consistency for image   5
     tcpu = 151716.0    self-consistency for image   6
     tcpu = 152117.5    self-consistency for image   7
     tcpu = 152527.3    self-consistency for image   8
     tcpu = 152917.2    self-consistency for image   9
     tcpu = 153294.9    self-consistency for image  10

     activation energy (->) =   1.717601 eV
     activation energy (<-) =   2.270915 eV

     image        energy (eV)        error (eV/A)        frozen

         1    -177387.6100042            0.161174            F
         2    -177387.5238295            0.477077            F
         3    -177387.1471039            0.837071            F
         4    -177386.5452807            0.947817            F
         5    -177385.9739700            1.070912            F
         6    -177385.8924029            1.067452            F
         7    -177386.2550806            1.004675            F
         8    -177387.0548354            0.921912            F
         9    -177387.8701385            0.658014            F
        10    -177388.1633183            0.042702            F

     path length          =  5.668 bohr
     inter-image distance =  0.630 bohr

     ------------------------------ iteration  35 ------------------------------

     tcpu = 153658.6    self-consistency for image   1
     tcpu = 154050.5    self-consistency for image   2
     tcpu = 154441.4    self-consistency for image   3
     tcpu = 154818.8    self-consistency for image   4
     tcpu = 155215.5    self-consistency for image   5
     tcpu = 155605.7    self-consistency for image   6
     tcpu = 156000.7    self-consistency for image   7
     tcpu = 156391.3    self-consistency for image   8
     tcpu = 156773.1    self-consistency for image   9
     tcpu = 157150.6    self-consistency for image  10

     activation energy (->) =   1.715979 eV
     activation energy (<-) =   2.269274 eV

     image        energy (eV)        error (eV/A)        frozen

         1    -177387.6100285            0.158758            F
         2    -177387.5241575            0.476132            F
         3    -177387.1484098            0.833506            F
         4    -177386.5472335            0.942940            F
         5    -177385.9758367            1.041334            F
         6    -177385.8940490            1.038111            F
         7    -177386.2565671            0.979738            F
         8    -177387.0560156            0.916940            F
         9    -177387.8706502            0.656486            F
        10    -177388.1633234            0.042772            F

     path length          =  5.669 bohr
     inter-image distance =  0.630 bohr

     ------------------------------ iteration  36 ------------------------------

     tcpu = 157541.9    self-consistency for image   1
     tcpu = 157933.9    self-consistency for image   2
     tcpu = 158321.7    self-consistency for image   3
     tcpu = 158709.4    self-consistency for image   4
     tcpu = 159112.5    self-consistency for image   5
     tcpu = 159520.1    self-consistency for image   6
     tcpu = 159913.1    self-consistency for image   7
     tcpu = 160308.3    self-consistency for image   8
     tcpu = 160682.9    self-consistency for image   9
     tcpu = 161059.6    self-consistency for image  10

     activation energy (->) =   1.713974 eV
     activation energy (<-) =   2.267237 eV

     image        energy (eV)        error (eV/A)        frozen

         1    -177387.6100708            0.160294            F
         2    -177387.5245807            0.474489            F
         3    -177387.1500362            0.828844            F
         4    -177386.5496229            0.938919            F
         5    -177385.9781273            1.061518            F
         6    -177385.8960964            1.059466            F
         7    -177386.2584061            0.995025            F
         8    -177387.0574780            0.911712            F
         9    -177387.8712970            0.654044            F
        10    -177388.1633336            0.042342            F

     path length          =  5.670 bohr
     inter-image distance =  0.630 bohr

     ------------------------------ iteration  37 ------------------------------

     tcpu = 161426.2    self-consistency for image   1
     tcpu = 161815.9    self-consistency for image   2
     tcpu = 162201.3    self-consistency for image   3
     tcpu = 162598.0    self-consistency for image   4
     tcpu = 163001.7    self-consistency for image   5
     tcpu = 163391.5    self-consistency for image   6
     tcpu = 163800.7    self-consistency for image   7
     tcpu = 164209.6    self-consistency for image   8
     tcpu = 164600.1    self-consistency for image   9
     tcpu = 164986.6    self-consistency for image  10

     activation energy (->) =   1.711009 eV
     activation energy (<-) =   2.264196 eV

     image        energy (eV)        error (eV/A)        frozen

         1    -177387.6101264            0.159757            F
         2    -177387.5252252            0.471819            F
         3    -177387.1524874            0.821146            F
         4    -177386.5532505            0.934685            F
         5    -177385.9815252            1.054369            F
         6    -177385.8991171            1.051094            F
         7    -177386.2611482            0.990268            F
         8    -177387.0597111            0.906326            F
         9    -177387.8722859            0.650321            F
        10    -177388.1633126            0.042444            F

     path length          =  5.673 bohr
     inter-image distance =  0.630 bohr

     ------------------------------ iteration  38 ------------------------------

     tcpu = 165360.1    self-consistency for image   1
     tcpu = 165751.6    self-consistency for image   2
     tcpu = 166144.8    self-consistency for image   3
     tcpu = 166566.2    self-consistency for image   4
     tcpu = 166994.8    self-consistency for image   5
     tcpu = 167443.0    self-consistency for image   6
     tcpu = 167876.2    self-consistency for image   7
     tcpu = 168307.1    self-consistency for image   8
     tcpu = 168726.9    self-consistency for image   9
     tcpu = 169111.1    self-consistency for image  10

     activation energy (->) =   1.697067 eV
     activation energy (<-) =   2.250072 eV

     image        energy (eV)        error (eV/A)        frozen

         1    -177387.6104018            0.154539            F
         2    -177387.5283131            0.458920            F
         3    -177387.1642562            0.789289            F
         4    -177386.5703621            0.907789            F
         5    -177385.9975932            1.019379            F
         6    -177385.9133350            1.015077            F
         7    -177386.2740864            0.957691            F
         8    -177387.0702629            0.871625            F
         9    -177387.8770179            0.635500            F
        10    -177388.1634072            0.041114            F

     path length          =  5.683 bohr
     inter-image distance =  0.631 bohr

     ------------------------------ iteration  39 ------------------------------

     tcpu = 169487.5    self-consistency for image   1
     tcpu = 169872.8    self-consistency for image   2
     tcpu = 170284.0    self-consistency for image   3
     tcpu = 170719.2    self-consistency for image   4
     tcpu = 171160.6    self-consistency for image   5
     tcpu = 171648.6    self-consistency for image   6
     tcpu = 172137.8    self-consistency for image   7
     tcpu = 172590.3    self-consistency for image   8
     tcpu = 173030.6    self-consistency for image   9
     tcpu = 173446.2    self-consistency for image  10

     activation energy (->) =   1.672284 eV
     activation energy (<-) =   2.224864 eV

     image        energy (eV)        error (eV/A)        frozen

         1    -177387.6109107            0.153636            F
         2    -177387.5339729            0.435550            F
         3    -177387.1855093            0.727067            F
         4    -177386.6011763            0.858079            F
         5    -177386.0263240            0.954300            F
         6    -177385.9386263            0.947544            F
         7    -177386.2971887            0.900893            F
         8    -177387.0892144            0.809185            F
         9    -177387.8855809            0.600075            F
        10    -177388.1634905            0.038029            F

     path length          =  5.702 bohr
     inter-image distance =  0.634 bohr

     ------------------------------ iteration  40 ------------------------------

     tcpu = 173822.9    self-consistency for image   1
     tcpu = 174227.8    self-consistency for image   2
     tcpu = 174643.4    self-consistency for image   3
     tcpu = 175068.4    self-consistency for image   4
     tcpu = 175497.7    self-consistency for image   5
     tcpu = 175954.0    self-consistency for image   6
     tcpu = 176395.1    self-consistency for image   7
     tcpu = 176867.2    self-consistency for image   8
     tcpu = 177329.8    self-consistency for image   9
     tcpu = 177756.0    self-consistency for image  10

     activation energy (->) =   1.655072 eV
     activation energy (<-) =   2.207364 eV

     image        energy (eV)        error (eV/A)        frozen

         1    -177387.6112798            0.145097            F
         2    -177387.5380438            0.417815            F
         3    -177387.2006095            0.697985            F
         4    -177386.6229290            0.820880            F
         5    -177386.0464447            0.907079            F
         6    -177385.9562076            0.897885            F
         7    -177386.3133387            0.857022            F
         8    -177387.1025496            0.762157            F
         9    -177387.8916610            0.577828            F
        10    -177388.1635720            0.038024            F

     path length          =  5.718 bohr
     inter-image distance =  0.635 bohr

     ------------------------------ iteration  41 ------------------------------

     tcpu = 178203.1    self-consistency for image   1
     tcpu = 178693.5    self-consistency for image   2
     tcpu = 179163.1    self-consistency for image   3
     tcpu = 179624.4    self-consistency for image   4
     tcpu = 180103.2    self-consistency for image   5
     tcpu = 180571.0    self-consistency for image   6
     tcpu = 181047.2    self-consistency for image   7
     tcpu = 181511.7    self-consistency for image   8
     tcpu = 181967.0    self-consistency for image   9
     tcpu = 182384.5    self-consistency for image  10

     activation energy (->) =   1.644865 eV
     activation energy (<-) =   2.196984 eV

     image        energy (eV)        error (eV/A)        frozen

         1    -177387.6115133            0.145158            F
         2    -177387.5405249            0.405976            F
         3    -177387.2097167            0.694499            F
         4    -177386.6359926            0.798377            F
         5    -177386.0584459            0.877480            F
         6    -177385.9666483            0.868203            F
         7    -177386.3229563            0.829589            F
         8    -177387.1105523            0.742107            F
         9    -177387.8953354            0.563029            F
        10    -177388.1636321            0.036704            F

     path length          =  5.728 bohr
     inter-image distance =  0.636 bohr

     ------------------------------ iteration  42 ------------------------------

     tcpu = 182798.1    self-consistency for image   1
     tcpu = 183217.8    self-consistency for image   2
     tcpu = 183652.0    self-consistency for image   3
     tcpu = 184087.7    self-consistency for image   4
     tcpu = 184532.2    self-consistency for image   5
     tcpu = 184993.0    self-consistency for image   6
     tcpu = 185418.0    self-consistency for image   7
     tcpu = 185851.0    self-consistency for image   8
     tcpu = 186270.6    self-consistency for image   9
     tcpu = 186681.9    self-consistency for image  10

     activation energy (->) =   1.642875 eV
     activation energy (<-) =   2.194899 eV

     image        energy (eV)        error (eV/A)        frozen

         1    -177387.6115615            0.146632            F
         2    -177387.5410378            0.403063            F
         3    -177387.2115348            0.692455            F
         4    -177386.6385725            0.794096            F
         5    -177386.0607987            0.872052            F
         6    -177385.9686865            0.863220            F
         7    -177386.3248510            0.825906            F
         8    -177387.1121198            0.726700            F
         9    -177387.8960785            0.558544            F
        10    -177388.1635859            0.037128            F

     path length          =  5.730 bohr
     inter-image distance =  0.637 bohr

     ------------------------------ iteration  43 ------------------------------

     tcpu = 187096.8    self-consistency for image   1
     tcpu = 187514.8    self-consistency for image   2
     tcpu = 187938.3    self-consistency for image   3
     tcpu = 188353.1    self-consistency for image   4
     tcpu = 188780.0    self-consistency for image   5
     tcpu = 189203.3    self-consistency for image   6
     tcpu = 189624.9    self-consistency for image   7
     tcpu = 190050.6    self-consistency for image   8
     tcpu = 190457.7    self-consistency for image   9
     tcpu = 190875.6    self-consistency for image  10

     activation energy (->) =   1.641837 eV
     activation energy (<-) =   2.193889 eV

     image        energy (eV)        error (eV/A)        frozen

         1    -177387.6115888            0.146751            F
         2    -177387.5413160            0.402022            F
         3    -177387.2125224            0.692358            F
         4    -177386.6399398            0.790716            F
         5    -177386.0620270            0.852971            F
         6    -177385.9697520            0.839567            F
         7    -177386.3258342            0.805409            F
         8    -177387.1129841            0.728421            F
         9    -177387.8964879            0.556904            F
        10    -177388.1636412            0.036667            F

     path length          =  5.731 bohr
     inter-image distance =  0.637 bohr

     ------------------------------ iteration  44 ------------------------------

     tcpu = 191270.6    self-consistency for image   1
     tcpu = 191701.0    self-consistency for image   2
     tcpu = 192121.8    self-consistency for image   3
     tcpu = 192530.6    self-consistency for image   4
     tcpu = 192952.7    self-consistency for image   5
     tcpu = 193390.3    self-consistency for image   6
     tcpu = 193810.0    self-consistency for image   7
     tcpu = 194222.1    self-consistency for image   8
     tcpu = 194625.9    self-consistency for image   9
     tcpu = 195033.6    self-consistency for image  10

     activation energy (->) =   1.640500 eV
     activation energy (<-) =   2.192503 eV

     image        energy (eV)        error (eV/A)        frozen

         1    -177387.6116160            0.144995            F
         2    -177387.5416929            0.400303            F
         3    -177387.2138330            0.691358            F
         4    -177386.6417249            0.787353            F
         5    -177386.0636123            0.840789            F
         6    -177385.9711164            0.829938            F
         7    -177386.3271121            0.796420            F
         8    -177387.1141008            0.720843            F
         9    -177387.8970394            0.554585            F
        10    -177388.1636191            0.036777            F

     path length          =  5.732 bohr
     inter-image distance =  0.637 bohr

     ------------------------------ iteration  45 ------------------------------

     tcpu = 195446.2    self-consistency for image   1
     tcpu = 195870.1    self-consistency for image   2
     tcpu = 196286.2    self-consistency for image   3
     tcpu = 196696.6    self-consistency for image   4
     tcpu = 197114.0    self-consistency for image   5
     tcpu = 197536.2    self-consistency for image   6
     tcpu = 197949.3    self-consistency for image   7
     tcpu = 198374.6    self-consistency for image   8
     tcpu = 198773.1    self-consistency for image   9
     tcpu = 199188.7    self-consistency for image  10

     activation energy (->) =   1.638379 eV
     activation energy (<-) =   2.190381 eV

     image        energy (eV)        error (eV/A)        frozen

         1    -177387.6116760            0.145777            F
         2    -177387.5422975            0.397654            F
         3    -177387.2159148            0.689570            F
         4    -177386.6445615            0.783442            F
         5    -177386.0661451            0.859426            F
         6    -177385.9732973            0.849246            F
         7    -177386.3291650            0.813852            F
         8    -177387.1158579            0.717792            F
         9    -177387.8979245            0.550949            F
        10    -177388.1636787            0.036504            F

     path length          =  5.734 bohr
     inter-image distance =  0.637 bohr

     ------------------------------ iteration  46 ------------------------------

     tcpu = 199600.2    self-consistency for image   1
     tcpu = 200013.7    self-consistency for image   2
     tcpu = 200427.1    self-consistency for image   3
     tcpu = 200877.9    self-consistency for image   4
     tcpu = 201335.8    self-consistency for image   5
     tcpu = 201812.8    self-consistency for image   6
     tcpu = 202275.3    self-consistency for image   7
     tcpu = 202748.0    self-consistency for image   8
     tcpu = 203202.1    self-consistency for image   9
     tcpu = 203627.3    self-consistency for image  10

     activation energy (->) =   1.627284 eV
     activation energy (<-) =   2.179009 eV

     image        energy (eV)        error (eV/A)        frozen

         1    -177387.6119823            0.142719            F
         2    -177387.5455241            0.385872            F
         3    -177387.2270000            0.684749            F
         4    -177386.6595333            0.756666            F
         5    -177386.0794076            0.825643            F
         6    -177385.9846981            0.814560            F
         7    -177386.3398638            0.782609            F
         8    -177387.1252608            0.704281            F
         9    -177387.9026255            0.533924            F
        10    -177388.1637071            0.034997            F

     path length          =  5.746 bohr
     inter-image distance =  0.638 bohr

     ------------------------------ iteration  47 ------------------------------

     tcpu = 204036.0    self-consistency for image   1
     tcpu = 204469.0    self-consistency for image   2
     tcpu = 204902.5    self-consistency for image   3
     tcpu = 205370.1    self-consistency for image   4
     tcpu = 205844.6    self-consistency for image   5
     tcpu = 206342.9    self-consistency for image   6
     tcpu = 206831.0    self-consistency for image   7
     tcpu = 207316.5    self-consistency for image   8
     tcpu = 207774.9    self-consistency for image   9
     tcpu = 208222.1    self-consistency for image  10

     activation energy (->) =   1.608649 eV
     activation energy (<-) =   2.159917 eV

     image        energy (eV)        error (eV/A)        frozen

         1    -177387.6125195            0.144961            F
         2    -177387.5510764            0.380216            F
         3    -177387.2459306            0.673411            F
         4    -177386.6850333            0.708764            F
         5    -177386.1018406            0.767721            F
         6    -177386.0038704            0.753694            F
         7    -177386.3579360            0.729543            F
         8    -177387.1411719            0.661423            F
         9    -177387.9106454            0.514398            F
        10    -177388.1637873            0.033758            F

     path length          =  5.769 bohr
     inter-image distance =  0.641 bohr

     ------------------------------ iteration  48 ------------------------------

     tcpu = 208657.5    self-consistency for image   1
     tcpu = 209130.1    self-consistency for image   2
     tcpu = 209597.4    self-consistency for image   3
     tcpu = 210082.8    self-consistency for image   4
     tcpu = 210561.7    self-consistency for image   5
     tcpu = 211034.3    self-consistency for image   6
     tcpu = 211524.7    self-consistency for image   7
     tcpu = 211981.3    self-consistency for image   8
     tcpu = 212427.0    self-consistency for image   9
     tcpu = 212853.4    self-consistency for image  10

     activation energy (->) =   1.596506 eV
     activation energy (<-) =   2.147486 eV

     image        energy (eV)        error (eV/A)        frozen

         1    -177387.6128855            0.139077            F
         2    -177387.5547925            0.382273            F
         3    -177387.2584966            0.665953            F
         4    -177386.7018877            0.676934            F
         5    -177386.1165768            0.726707            F
         6    -177386.0163790            0.712954            F
         7    -177386.3697582            0.692427            F
         8    -177387.1516464            0.632385            F
         9    -177387.9159683            0.502870            F
        10    -177388.1638646            0.031937            F

     path length          =  5.785 bohr
     inter-image distance =  0.643 bohr

     ------------------------------ iteration  49 ------------------------------

     tcpu = 213318.9    self-consistency for image   1
     tcpu = 213858.3    self-consistency for image   2
     tcpu = 214395.0    self-consistency for image   3
     tcpu = 214916.7    self-consistency for image   4
     tcpu = 215442.8    self-consistency for image   5
     tcpu = 215925.5    self-consistency for image   6
     tcpu = 216413.5    self-consistency for image   7
     tcpu = 216890.6    self-consistency for image   8
     tcpu = 217377.0    self-consistency for image   9
     tcpu = 217819.8    self-consistency for image  10

     activation energy (->) =   1.589612 eV
     activation energy (<-) =   2.140400 eV

     image        energy (eV)        error (eV/A)        frozen

         1    -177387.6131054            0.140452            F
         2    -177387.5569430            0.382949            F
         3    -177387.2657431            0.661818            F
         4    -177386.7115679            0.657107            F
         5    -177386.1250038            0.704653            F
         6    -177386.0234933            0.688383            F
         7    -177386.3765148            0.672900            F
         8    -177387.1576666            0.615176            F
         9    -177387.9190374            0.497574            F
        10    -177388.1638931            0.031319            F

     path length          =  5.795 bohr
     inter-image distance =  0.644 bohr

     ------------------------------ iteration  50 ------------------------------

     tcpu = 218259.1    self-consistency for image   1
     tcpu = 218724.9    self-consistency for image   2
     tcpu = 219203.6    self-consistency for image   3
     tcpu = 219649.0    self-consistency for image   4
     tcpu = 220124.3    self-consistency for image   5
     tcpu = 220573.1    self-consistency for image   6
     tcpu = 221011.9    self-consistency for image   7
     tcpu = 221475.0    self-consistency for image   8
     tcpu = 221934.1    self-consistency for image   9
     tcpu = 222389.9    self-consistency for image  10

     activation energy (->) =   1.588420 eV
     activation energy (<-) =   2.139152 eV

     image        energy (eV)        error (eV/A)        frozen

         1    -177387.6131419            0.141631            F
         2    -177387.5573432            0.382244            F
         3    -177387.2670496            0.659830            F
         4    -177386.7132873            0.652332            F
         5    -177386.1264994            0.698473            F
         6    -177386.0247216            0.655517            F
         7    -177386.3776910            0.643555            F
         8    -177387.1587309            0.605969            F
         9    -177387.9195952            0.496145            F
        10    -177388.1638740            0.031253            F

     path length          =  5.796 bohr
     inter-image distance =  0.644 bohr

     ------------------------------ iteration  51 ------------------------------

     tcpu = 222850.4    self-consistency for image   1
     tcpu = 223326.4    self-consistency for image   2
     tcpu = 223833.3    self-consistency for image   3
     tcpu = 224331.7    self-consistency for image   4
     tcpu = 224827.2    self-consistency for image   5
     tcpu = 225281.7    self-consistency for image   6
     tcpu = 225730.5    self-consistency for image   7
     tcpu = 226186.5    self-consistency for image   8
     tcpu = 226650.5    self-consistency for image   9
     tcpu = 227099.3    self-consistency for image  10

     activation energy (->) =   1.587749 eV
     activation energy (<-) =   2.138486 eV

     image        energy (eV)        error (eV/A)        frozen

         1    -177387.6131691            0.141784            F
         2    -177387.5575651            0.382296            F
         3    -177387.2677802            0.659289            F
         4    -177386.7142367            0.650967            F
         5    -177386.1273141            0.685778            F
         6    -177386.0254201            0.668782            F
         7    -177386.3783554            0.653547            F
         8    -177387.1593301            0.607202            F
         9    -177387.9199106            0.495604            F
        10    -177388.1639057            0.031682            F

     path length          =  5.797 bohr
     inter-image distance =  0.644 bohr

     ------------------------------ iteration  52 ------------------------------

     tcpu = 227541.8    self-consistency for image   1
     tcpu = 227980.9    self-consistency for image   2
     tcpu = 228420.8    self-consistency for image   3
     tcpu = 228861.9    self-consistency for image   4
     tcpu = 229304.3    self-consistency for image   5
     tcpu = 229749.6    self-consistency for image   6
     tcpu = 230195.6    self-consistency for image   7
     tcpu = 230637.4    self-consistency for image   8
     tcpu = 231081.4    self-consistency for image   9
     tcpu = 231536.5    self-consistency for image  10

     activation energy (->) =   1.586801 eV
     activation energy (<-) =   2.137524 eV

     image        energy (eV)        error (eV/A)        frozen

         1    -177387.6131972            0.140871            F
         2    -177387.5578951            0.381557            F
         3    -177387.2688523            0.657968            F
         4    -177386.7156020            0.648101            F
         5    -177386.1284795            0.674487            F
         6    -177386.0263965            0.657077            F
         7    -177386.3792883            0.642811            F
         8    -177387.1601925            0.601981            F
         9    -177387.9203799            0.494357            F
        10    -177388.1639203            0.031397            F

     path length          =  5.799 bohr
     inter-image distance =  0.644 bohr

     ------------------------------ iteration  53 ------------------------------

     tcpu = 231988.8    self-consistency for image   1
     tcpu = 232442.3    self-consistency for image   2
     tcpu = 232899.7    self-consistency for image   3
     tcpu = 233341.8    self-consistency for image   4
     tcpu = 233786.0    self-consistency for image   5
     tcpu = 234226.3    self-consistency for image   6
     tcpu = 234665.2    self-consistency for image   7
     tcpu = 235107.3    self-consistency for image   8
     tcpu = 235531.4    self-consistency for image   9
     tcpu = 235963.7    self-consistency for image  10

     activation energy (->) =   1.585235 eV
     activation energy (<-) =   2.135905 eV

     image        energy (eV)        error (eV/A)        frozen

         1    -177387.6132552            0.141611            F
         2    -177387.5584438            0.380581            F
         3    -177387.2706229            0.655655            F
         4    -177386.7178602            0.644589            F
         5    -177386.1304165            0.689391            F
         6    -177386.0280198            0.675139            F
         7    -177386.3808337            0.659865            F
         8    -177387.1616047            0.603285            F
         9    -177387.9211610            0.492614            F
        10    -177388.1639249            0.031378            F

     path length          =  5.801 bohr
     inter-image distance =  0.645 bohr

     ------------------------------ iteration  54 ------------------------------

     tcpu = 236399.8    self-consistency for image   1
     tcpu = 236830.5    self-consistency for image   2
     tcpu = 237279.9    self-consistency for image   3
     tcpu = 237728.5    self-consistency for image   4
     tcpu = 238196.4    self-consistency for image   5
     tcpu = 238681.7    self-consistency for image   6
     tcpu = 239154.5    self-consistency for image   7
     tcpu = 239646.9    self-consistency for image   8
     tcpu = 240125.7    self-consistency for image   9
     tcpu = 240562.8    self-consistency for image  10

     activation energy (->) =   1.576095 eV
     activation energy (<-) =   2.126478 eV

     image        energy (eV)        error (eV/A)        frozen

         1    -177387.6136017            0.138873            F
         2    -177387.5617028            0.379383            F
         3    -177387.2811376            0.650451            F
         4    -177386.7311686            0.617977            F
         5    -177386.1417660            0.657574            F
         6    -177386.0375065            0.643153            F
         7    -177386.3899093            0.629101            F
         8    -177387.1700213            0.579257            F
         9    -177387.9257763            0.484736            F
        10    -177388.1639848            0.030862            F

     path length          =  5.816 bohr
     inter-image distance =  0.646 bohr

     ------------------------------ iteration  55 ------------------------------

     tcpu = 240999.3    self-consistency for image   1
     tcpu = 241429.5    self-consistency for image   2
     tcpu = 241887.7    self-consistency for image   3
     tcpu = 242350.5    self-consistency for image   4
     tcpu = 242831.5    self-consistency for image   5
     tcpu = 243311.9    self-consistency for image   6
     tcpu = 243795.2    self-consistency for image   7
     tcpu = 244275.1    self-consistency for image   8
     tcpu = 244726.9    self-consistency for image   9
     tcpu = 245184.3    self-consistency for image  10

     activation energy (->) =   1.561262 eV
     activation energy (<-) =   2.111153 eV

     image        energy (eV)        error (eV/A)        frozen

         1    -177387.6141853            0.141223            F
         2    -177387.5671186            0.373648            F
         3    -177387.2984343            0.635720            F
         4    -177386.7530336            0.572722            F
         5    -177386.1603247            0.604427            F
         6    -177386.0529229            0.589800            F
         7    -177386.4046943            0.581710            F
         8    -177387.1837586            0.537388            F
         9    -177387.9333534            0.469550            F
        10    -177388.1640754            0.028456            F

     path length          =  5.841 bohr
     inter-image distance =  0.649 bohr

     ------------------------------ iteration  56 ------------------------------

     tcpu = 245661.0    self-consistency for image   1
     tcpu = 246145.2    self-consistency for image   2
     tcpu = 246614.1    self-consistency for image   3
     tcpu = 247077.2    self-consistency for image   4
     tcpu = 247537.1    self-consistency for image   5
     tcpu = 248007.9    self-consistency for image   6
     tcpu = 248465.4    self-consistency for image   7
     tcpu = 248928.6    self-consistency for image   8
     tcpu = 249391.3    self-consistency for image   9
     tcpu = 249832.4    self-consistency for image  10

     WARNING :  scf convergence NOT achieved on image  10

     cleaning-up extrapolation files

 
     NEB          :     21h 3m CPU   2d21h31m WALL

 
   This run was terminated on:   0:35:28  22Jun2025            

=------------------------------------------------------------------------------=
   JOB DONE.
=------------------------------------------------------------------------------=
