
     Program NEB v.7.2 starts on 22Nov2024 at 15:37:33 

     This program is part of the open-source Quantum ESPRESSO suite
     for quantum simulation of materials; please cite
         "P. Giannozzi et al., J. Phys.:Condens. Matter 21 395502 (2009);
         "P. Giannozzi et al., J. Phys.:Condens. Matter 29 465901 (2017);
         "P. Giannozzi et al., J. Chem. Phys. 152 154105 (2020);
          URL http://www.quantum-espresso.org", 
     in publications or presentations arising from this work. More details at
     http://www.quantum-espresso.org/quote

     Parallel version (MPI), running on    96 processors

     MPI processes distributed on     2 nodes
     154416 MiB available memory on the printing compute node when the environment starts
 

     Parsing file: neb.in
     Reading input from pw_1.in
Warning: card &CELL ignored
Warning: card   CELL_DYNAMICS='BFGS', ignored
Warning: card   PRESS=0.0, ignored
Warning: card   PRESS_CONV_THR=0.5, ignored
Warning: card / ignored
     Reading input from pw_2.in
Warning: card &CELL ignored
Warning: card   CELL_DYNAMICS='BFGS', ignored
Warning: card   PRESS=0.0, ignored
Warning: card   PRESS_CONV_THR=0.5, ignored
Warning: card / ignored

     File ./out/sb2te3.broyden deleted, as requested

     File ./out/sb2te3_1/sb2te3.update deleted, as requested

     File ./out/sb2te3_1/PW.out deleted, as requested

     File ./out/sb2te3_2/sb2te3.update deleted, as requested

     File ./out/sb2te3_2/PW.out deleted, as requested

     File ./out/sb2te3_3/sb2te3.update deleted, as requested

     File ./out/sb2te3_3/PW.out deleted, as requested

     File ./out/sb2te3_4/sb2te3.update deleted, as requested

     File ./out/sb2te3_4/PW.out deleted, as requested

     File ./out/sb2te3_5/sb2te3.update deleted, as requested

     File ./out/sb2te3_5/PW.out deleted, as requested

     File ./out/sb2te3_6/sb2te3.update deleted, as requested

     File ./out/sb2te3_6/PW.out deleted, as requested

     File ./out/sb2te3_7/sb2te3.update deleted, as requested

     File ./out/sb2te3_7/PW.out deleted, as requested

     File ./out/sb2te3_8/sb2te3.update deleted, as requested

     File ./out/sb2te3_8/PW.out deleted, as requested

     File ./out/sb2te3_9/sb2te3.update deleted, as requested

     File ./out/sb2te3_9/PW.out deleted, as requested

     File ./out/sb2te3_10/sb2te3.update deleted, as requested

     File ./out/sb2te3_10/PW.out deleted, as requested

     initial path length           = 12.6270 bohr
     initial inter-image distance  =  1.4030 bohr
 
     string_method                 =    neb
     restart_mode                  =    from_scratch
     opt_scheme                    =    broyden
     num_of_images                 =    10
     nstep_path                    =    1000
     CI_scheme                     =    no-CI
     first_last_opt                =    T
     use_freezing                  =    F
     ds                            =    0.0756 a.u.
     k_max                         =    0.1000 a.u.
     k_min                         =    0.0050 a.u.
     suggested k_max               =  107.9285 a.u.
     suggested k_min               =    5.3964 a.u.
     path_thr                      =    0.0010 eV / A

     ------------------------------ iteration   1 ------------------------------

     tcpu =      1.1    self-consistency for image   1
     Message from routine setup:
     using ibrav=0 with symmetry is DISCOURAGED, use correct ibrav instead
     tcpu =     49.3    self-consistency for image   2
     Message from routine setup:
     using ibrav=0 with symmetry is DISCOURAGED, use correct ibrav instead
     tcpu =     98.5    self-consistency for image   3
     Message from routine setup:
     using ibrav=0 with symmetry is DISCOURAGED, use correct ibrav instead
     tcpu =    145.8    self-consistency for image   4
     Message from routine setup:
     using ibrav=0 with symmetry is DISCOURAGED, use correct ibrav instead
     tcpu =    196.8    self-consistency for image   5
     Message from routine setup:
     using ibrav=0 with symmetry is DISCOURAGED, use correct ibrav instead
     tcpu =    253.0    self-consistency for image   6
     Message from routine setup:
     using ibrav=0 with symmetry is DISCOURAGED, use correct ibrav instead
     tcpu =    311.4    self-consistency for image   7
     Message from routine setup:
     using ibrav=0 with symmetry is DISCOURAGED, use correct ibrav instead
     tcpu =    355.1    self-consistency for image   8
     Message from routine setup:
     using ibrav=0 with symmetry is DISCOURAGED, use correct ibrav instead
     tcpu =    406.9    self-consistency for image   9
     Message from routine setup:
     using ibrav=0 with symmetry is DISCOURAGED, use correct ibrav instead
     tcpu =    457.6    self-consistency for image  10
     Message from routine setup:
     using ibrav=0 with symmetry is DISCOURAGED, use correct ibrav instead

     activation energy (->) = ********** eV
     activation energy (<-) = ********** eV

     image        energy (eV)        error (eV/A)        frozen

         1    -133596.3164592            0.688936            F
         2    -133596.6991999            0.786266            F
         3    -133592.6493193            9.048176            F
         4    -133466.1355709          796.510585            F
         5    -126959.6165001          **********            F
         6    -131265.4164030          **********            F
         7    -133567.8288352          260.790090            F
         8    -133594.3685010           10.607830            F
         9    -133596.9262915            1.520830            F
        10    -133598.2876560            0.569467            F

     path length          = 12.627 bohr
     inter-image distance =  1.403 bohr

     ------------------------------ iteration   2 ------------------------------

     tcpu =    508.8    self-consistency for image   1
     Message from routine setup:
     using ibrav=0 with symmetry is DISCOURAGED, use correct ibrav instead
     tcpu =    522.2    self-consistency for image   2
     Message from routine setup:
     using ibrav=0 with symmetry is DISCOURAGED, use correct ibrav instead
     tcpu =    534.7    self-consistency for image   3
     Message from routine setup:
     using ibrav=0 with symmetry is DISCOURAGED, use correct ibrav instead
     tcpu =    551.6    self-consistency for image   4
     Message from routine setup:
     using ibrav=0 with symmetry is DISCOURAGED, use correct ibrav instead
     tcpu =    596.3    self-consistency for image   5
     Message from routine setup:
     using ibrav=0 with symmetry is DISCOURAGED, use correct ibrav instead
     tcpu =    677.2    self-consistency for image   6
     Message from routine setup:
     using ibrav=0 with symmetry is DISCOURAGED, use correct ibrav instead
     tcpu =    738.6    self-consistency for image   7
     Message from routine setup:
     using ibrav=0 with symmetry is DISCOURAGED, use correct ibrav instead
     tcpu =    770.7    self-consistency for image   8
     Message from routine setup:
     using ibrav=0 with symmetry is DISCOURAGED, use correct ibrav instead
     tcpu =    789.9    self-consistency for image   9
     Message from routine setup:
     using ibrav=0 with symmetry is DISCOURAGED, use correct ibrav instead
     tcpu =    810.1    self-consistency for image  10
     Message from routine setup:
     using ibrav=0 with symmetry is DISCOURAGED, use correct ibrav instead

     activation energy (->) = ********** eV
     activation energy (<-) = ********** eV

     image        energy (eV)        error (eV/A)        frozen

         1    -133596.3165374            0.688171            F
         2    -133596.6992843            0.786012            F
         3    -133592.6501455            9.109948            F
         4    -133471.2250742          951.279269            F
         5    -132215.2414718          **********            F
         6    -132131.0301086          **********            F
         7    -133568.3771940          287.755233            F
         8    -133594.3695777           10.632252            F
         9    -133596.9263925            1.520911            F
        10    -133598.2876634            0.569321            F

     path length          = 12.934 bohr
     inter-image distance =  1.437 bohr

     ------------------------------ iteration   3 ------------------------------

     tcpu =    826.8    self-consistency for image   1
     Message from routine setup:
     using ibrav=0 with symmetry is DISCOURAGED, use correct ibrav instead
     tcpu =    845.9    self-consistency for image   2
     Message from routine setup:
     using ibrav=0 with symmetry is DISCOURAGED, use correct ibrav instead
     tcpu =    863.3    self-consistency for image   3
     Message from routine setup:
     using ibrav=0 with symmetry is DISCOURAGED, use correct ibrav instead
     tcpu =    882.7    self-consistency for image   4
     Message from routine setup:
     using ibrav=0 with symmetry is DISCOURAGED, use correct ibrav instead
     tcpu =    934.2    self-consistency for image   5
     Message from routine setup:
     using ibrav=0 with symmetry is DISCOURAGED, use correct ibrav instead
     tcpu =   1017.7    self-consistency for image   6
     Message from routine setup:
     using ibrav=0 with symmetry is DISCOURAGED, use correct ibrav instead
     tcpu =   1110.3    self-consistency for image   7
     Message from routine setup:
     using ibrav=0 with symmetry is DISCOURAGED, use correct ibrav instead
     tcpu =   1157.1    self-consistency for image   8
     Message from routine setup:
     using ibrav=0 with symmetry is DISCOURAGED, use correct ibrav instead
     tcpu =   1182.1    self-consistency for image   9
     Message from routine setup:
     using ibrav=0 with symmetry is DISCOURAGED, use correct ibrav instead
     tcpu =   1202.4    self-consistency for image  10
     Message from routine setup:
     using ibrav=0 with symmetry is DISCOURAGED, use correct ibrav instead

     activation energy (->) = 917.116160 eV
     activation energy (<-) = 919.086606 eV

     image        energy (eV)        error (eV/A)        frozen

         1    -133596.3173183            0.680943            F
         2    -133596.7000556            0.778794            F
         3    -133592.6576477            9.771592            F
         4    -133534.5225597          605.129435            F
         5    -132679.2011580          644.406977            F
         6    -132727.1287035          930.960573            F
         7    -133574.3726413          302.892284            F
         8    -133594.3792440           10.869881            F
         9    -133596.9273141            1.519386            F
        10    -133598.2877641            0.566528            F

     path length          = 13.665 bohr
     inter-image distance =  1.518 bohr

     ------------------------------ iteration   4 ------------------------------

     tcpu =   1222.8    self-consistency for image   1
     Message from routine setup:
     using ibrav=0 with symmetry is DISCOURAGED, use correct ibrav instead
     tcpu =   1240.1    self-consistency for image   2
     Message from routine setup:
     using ibrav=0 with symmetry is DISCOURAGED, use correct ibrav instead
     tcpu =   1256.5    self-consistency for image   3
     Message from routine setup:
     using ibrav=0 with symmetry is DISCOURAGED, use correct ibrav instead
     tcpu =   1276.1    self-consistency for image   4
     Message from routine setup:
     using ibrav=0 with symmetry is DISCOURAGED, use correct ibrav instead
     tcpu =   1320.6    self-consistency for image   5
     Message from routine setup:
     using ibrav=0 with symmetry is DISCOURAGED, use correct ibrav instead
     tcpu =   1382.7    self-consistency for image   6
     Message from routine setup:
     using ibrav=0 with symmetry is DISCOURAGED, use correct ibrav instead
     tcpu =   1435.3    self-consistency for image   7
     Message from routine setup:
     using ibrav=0 with symmetry is DISCOURAGED, use correct ibrav instead
     tcpu =   1475.2    self-consistency for image   8
     Message from routine setup:
     using ibrav=0 with symmetry is DISCOURAGED, use correct ibrav instead
     tcpu =   1495.4    self-consistency for image   9
     Message from routine setup:
     using ibrav=0 with symmetry is DISCOURAGED, use correct ibrav instead
     tcpu =   1514.2    self-consistency for image  10
     Message from routine setup:
     using ibrav=0 with symmetry is DISCOURAGED, use correct ibrav instead

     activation energy (->) = 923.344388 eV
     activation energy (<-) = 925.314483 eV

     image        energy (eV)        error (eV/A)        frozen

         1    -133596.3177258            0.683741            F
         2    -133596.7004574            0.782956            F
         3    -133592.6622292            9.979116            F
         4    -133548.4188105          484.775919            F
         5    -132672.9733377           98.124362            F
         6    -132740.7221422          217.925417            F
         7    -133578.2473958          278.563879            F
         8    -133594.3845727           10.991212            F
         9    -133596.9277966            1.520530            F
        10    -133598.2878210            0.566200            F

     path length          = 13.405 bohr
     inter-image distance =  1.489 bohr

     ------------------------------ iteration   5 ------------------------------

     tcpu =   1527.7    self-consistency for image   1
     Message from routine setup:
     using ibrav=0 with symmetry is DISCOURAGED, use correct ibrav instead
     tcpu =   1545.6    self-consistency for image   2
     Message from routine setup:
     using ibrav=0 with symmetry is DISCOURAGED, use correct ibrav instead
     tcpu =   1561.8    self-consistency for image   3
     Message from routine setup:
     using ibrav=0 with symmetry is DISCOURAGED, use correct ibrav instead
     tcpu =   1583.3    self-consistency for image   4
     Message from routine setup:
     using ibrav=0 with symmetry is DISCOURAGED, use correct ibrav instead
     tcpu =   1632.8    self-consistency for image   5
     Message from routine setup:
     using ibrav=0 with symmetry is DISCOURAGED, use correct ibrav instead
     tcpu =   1679.8    self-consistency for image   6
     Message from routine setup:
     using ibrav=0 with symmetry is DISCOURAGED, use correct ibrav instead
     tcpu =   1725.0    self-consistency for image   7
     Message from routine setup:
     using ibrav=0 with symmetry is DISCOURAGED, use correct ibrav instead
     tcpu =   1766.3    self-consistency for image   8
     Message from routine setup:
     using ibrav=0 with symmetry is DISCOURAGED, use correct ibrav instead
     tcpu =   1792.1    self-consistency for image   9
     Message from routine setup:
     using ibrav=0 with symmetry is DISCOURAGED, use correct ibrav instead
     tcpu =   1810.6    self-consistency for image  10
     Message from routine setup:
     using ibrav=0 with symmetry is DISCOURAGED, use correct ibrav instead

     activation energy (->) = 919.012146 eV
     activation energy (<-) = 920.981563 eV

     image        energy (eV)        error (eV/A)        frozen

         1    -133596.3185119            0.679535            F
         2    -133596.7012378            0.777979            F
         3    -133592.6712712           10.309346            F
         4    -133565.0969746          317.956701            F
         5    -132677.3063661          165.787175            F
         6    -132751.2131494          169.431147            F
         7    -133583.7734636          216.790206            F
         8    -133594.3950278           11.201854            F
         9    -133596.9287288            1.519587            F
        10    -133598.2879296            0.566679            F

     path length          = 13.370 bohr
     inter-image distance =  1.486 bohr

     ------------------------------ iteration   6 ------------------------------

     tcpu =   1827.6    self-consistency for image   1
     Message from routine setup:
     using ibrav=0 with symmetry is DISCOURAGED, use correct ibrav instead
     tcpu =   1845.2    self-consistency for image   2
     Message from routine setup:
     using ibrav=0 with symmetry is DISCOURAGED, use correct ibrav instead
     tcpu =   1861.4    self-consistency for image   3
     Message from routine setup:
     using ibrav=0 with symmetry is DISCOURAGED, use correct ibrav instead
     tcpu =   1889.2    self-consistency for image   4
     Message from routine setup:
     using ibrav=0 with symmetry is DISCOURAGED, use correct ibrav instead
     tcpu =   1944.1    self-consistency for image   5
     Message from routine setup:
     using ibrav=0 with symmetry is DISCOURAGED, use correct ibrav instead
     tcpu =   2003.9    self-consistency for image   6
     Message from routine setup:
     using ibrav=0 with symmetry is DISCOURAGED, use correct ibrav instead
     tcpu =   2055.2    self-consistency for image   7
     Message from routine setup:
     using ibrav=0 with symmetry is DISCOURAGED, use correct ibrav instead
     tcpu =   2110.8    self-consistency for image   8
     Message from routine setup:
     using ibrav=0 with symmetry is DISCOURAGED, use correct ibrav instead
     tcpu =   2144.3    self-consistency for image   9
     Message from routine setup:
     using ibrav=0 with symmetry is DISCOURAGED, use correct ibrav instead
     tcpu =   2164.1    self-consistency for image  10
     Message from routine setup:
     using ibrav=0 with symmetry is DISCOURAGED, use correct ibrav instead

     activation energy (->) = 882.558679 eV
     activation energy (<-) = 884.526025 eV

     image        energy (eV)        error (eV/A)        frozen

         1    -133596.3208949            0.663169            F
         2    -133596.7036087            0.760519            F
         3    -133592.7010551           10.941908            F
         4    -133590.0100113          158.231746            F
         5    -132713.7622158          152.859277            F
         6    -132797.1171627          221.073639            F
         7    -133591.5814270           77.654103            F
         8    -133594.4279345           11.587687            F
         9    -133596.9315744            1.515372            F
        10    -133598.2882405            0.562040            F

     path length          = 13.388 bohr
     inter-image distance =  1.488 bohr

     ------------------------------ iteration   7 ------------------------------

     tcpu =   2181.7    self-consistency for image   1
     Message from routine setup:
     using ibrav=0 with symmetry is DISCOURAGED, use correct ibrav instead
     tcpu =   2203.3    self-consistency for image   2
     Message from routine setup:
     using ibrav=0 with symmetry is DISCOURAGED, use correct ibrav instead
     tcpu =   2227.2    self-consistency for image   3
     Message from routine setup:
     using ibrav=0 with symmetry is DISCOURAGED, use correct ibrav instead
     tcpu =   2261.4    self-consistency for image   4
     Message from routine setup:
     using ibrav=0 with symmetry is DISCOURAGED, use correct ibrav instead
     tcpu =   2329.5    self-consistency for image   5
     Message from routine setup:
     using ibrav=0 with symmetry is DISCOURAGED, use correct ibrav instead
     tcpu =   2403.2    self-consistency for image   6
     Message from routine setup:
     using ibrav=0 with symmetry is DISCOURAGED, use correct ibrav instead
     tcpu =   2474.2    self-consistency for image   7
     Message from routine setup:
     using ibrav=0 with symmetry is DISCOURAGED, use correct ibrav instead
     tcpu =   2529.0    self-consistency for image   8
     Message from routine setup:
     using ibrav=0 with symmetry is DISCOURAGED, use correct ibrav instead
     tcpu =   2572.2    self-consistency for image   9
     Message from routine setup:
     using ibrav=0 with symmetry is DISCOURAGED, use correct ibrav instead
     tcpu =   2603.4    self-consistency for image  10
     Message from routine setup:
     using ibrav=0 with symmetry is DISCOURAGED, use correct ibrav instead

     activation energy (->) = 823.081619 eV
     activation energy (<-) = 825.043995 eV

     image        energy (eV)        error (eV/A)        frozen

         1    -133596.3266046            0.682145            F
         2    -133596.7092627            0.783104            F
         3    -133592.7797230           11.924717            F
         4    -133594.5746569           21.146350            F
         5    -132773.2449859          276.779519            F
         6    -132877.1621222          206.601241            F
         7    -133593.4149014           12.203040            F
         8    -133594.5074282           11.857674            F
         9    -133596.9383824            1.522132            F
        10    -133598.2889808            0.555950            F

     path length          = 13.523 bohr
     inter-image distance =  1.503 bohr

     ------------------------------ iteration   8 ------------------------------

     tcpu =   2623.0    self-consistency for image   1
     Message from routine setup:
     using ibrav=0 with symmetry is DISCOURAGED, use correct ibrav instead
     tcpu =   2644.5    self-consistency for image   2
     Message from routine setup:
     using ibrav=0 with symmetry is DISCOURAGED, use correct ibrav instead
     tcpu =   2668.5    self-consistency for image   3
     Message from routine setup:
     using ibrav=0 with symmetry is DISCOURAGED, use correct ibrav instead
     tcpu =   2698.0    self-consistency for image   4
     Message from routine setup:
     using ibrav=0 with symmetry is DISCOURAGED, use correct ibrav instead
     tcpu =   2756.8    self-consistency for image   5
     Message from routine setup:
     using ibrav=0 with symmetry is DISCOURAGED, use correct ibrav instead
     tcpu =   2831.8    self-consistency for image   6
     Message from routine setup:
     using ibrav=0 with symmetry is DISCOURAGED, use correct ibrav instead
     tcpu =   2910.4    self-consistency for image   7
     Message from routine setup:
     using ibrav=0 with symmetry is DISCOURAGED, use correct ibrav instead
     tcpu =   2968.6    self-consistency for image   8
     Message from routine setup:
     using ibrav=0 with symmetry is DISCOURAGED, use correct ibrav instead
     tcpu =   3010.8    self-consistency for image   9
     Message from routine setup:
     using ibrav=0 with symmetry is DISCOURAGED, use correct ibrav instead
     tcpu =   3041.1    self-consistency for image  10
     Message from routine setup:
     using ibrav=0 with symmetry is DISCOURAGED, use correct ibrav instead

     activation energy (->) = 761.678032 eV
     activation energy (<-) = 763.635527 eV

     image        energy (eV)        error (eV/A)        frozen

         1    -133596.3322063            0.679841            F
         2    -133596.7148022            0.781114            F
         3    -133592.8657710           11.063074            F
         4    -133592.5930079            2.896135            F
         5    -132834.6541744          294.128753            F
         6    -132943.8595498          248.565033            F
         7    -133591.7555446           11.140005            F
         8    -133594.5856992           11.651750            F
         9    -133596.9450361            1.522428            F
        10    -133598.2897012            0.546098            F

     path length          = 13.810 bohr
     inter-image distance =  1.534 bohr

     ------------------------------ iteration   9 ------------------------------

     tcpu =   3057.7    self-consistency for image   1
     Message from routine setup:
     using ibrav=0 with symmetry is DISCOURAGED, use correct ibrav instead
     tcpu =   3081.0    self-consistency for image   2
     Message from routine setup:
     using ibrav=0 with symmetry is DISCOURAGED, use correct ibrav instead
     tcpu =   3105.0    self-consistency for image   3
     Message from routine setup:
     using ibrav=0 with symmetry is DISCOURAGED, use correct ibrav instead
     tcpu =   3134.9    self-consistency for image   4
     Message from routine setup:
     using ibrav=0 with symmetry is DISCOURAGED, use correct ibrav instead
     tcpu =   3202.7    self-consistency for image   5
     Message from routine setup:
     using ibrav=0 with symmetry is DISCOURAGED, use correct ibrav instead
     tcpu =   3280.0    self-consistency for image   6
     Message from routine setup:
     using ibrav=0 with symmetry is DISCOURAGED, use correct ibrav instead
     tcpu =   3356.2    self-consistency for image   7
     Message from routine setup:
     using ibrav=0 with symmetry is DISCOURAGED, use correct ibrav instead
     tcpu =   3413.0    self-consistency for image   8
     Message from routine setup:
     using ibrav=0 with symmetry is DISCOURAGED, use correct ibrav instead
     tcpu =   3452.4    self-consistency for image   9
     Message from routine setup:
     using ibrav=0 with symmetry is DISCOURAGED, use correct ibrav instead
     tcpu =   3478.7    self-consistency for image  10
     Message from routine setup:
     using ibrav=0 with symmetry is DISCOURAGED, use correct ibrav instead

     activation energy (->) = 690.776312 eV
     activation energy (<-) = 692.727869 eV

     image        energy (eV)        error (eV/A)        frozen

         1    -133596.3390277            0.676419            F
         2    -133596.7215495            0.778849            F
         3    -133592.9800826           12.667171            F
         4    -133594.8297120           11.997919            F
         5    -132905.5627156          328.249288            F
         6    -133020.2955683          273.489977            F
         7    -133590.3709542            2.325726            F
         8    -133594.6783691           11.047452            F
         9    -133596.9531469            1.521693            F
        10    -133598.2905844            0.541306            F

     path length          = 14.366 bohr
     inter-image distance =  1.596 bohr

     ------------------------------ iteration  10 ------------------------------

     tcpu =   3498.6    self-consistency for image   1
     Message from routine setup:
     using ibrav=0 with symmetry is DISCOURAGED, use correct ibrav instead
     tcpu =   3521.0    self-consistency for image   2
     Message from routine setup:
     using ibrav=0 with symmetry is DISCOURAGED, use correct ibrav instead
     tcpu =   3544.1    self-consistency for image   3
     Message from routine setup:
     using ibrav=0 with symmetry is DISCOURAGED, use correct ibrav instead
     tcpu =   3578.2    self-consistency for image   4
     Message from routine setup:
     using ibrav=0 with symmetry is DISCOURAGED, use correct ibrav instead
     tcpu =   3648.8    self-consistency for image   5
     Message from routine setup:
     using ibrav=0 with symmetry is DISCOURAGED, use correct ibrav instead
     tcpu =   3729.8    self-consistency for image   6
     Message from routine setup:
     using ibrav=0 with symmetry is DISCOURAGED, use correct ibrav instead
     tcpu =   3805.2    self-consistency for image   7
     Message from routine setup:
     using ibrav=0 with symmetry is DISCOURAGED, use correct ibrav instead
     tcpu =   3865.8    self-consistency for image   8
     Message from routine setup:
     using ibrav=0 with symmetry is DISCOURAGED, use correct ibrav instead
     tcpu =   3903.8    self-consistency for image   9
     Message from routine setup:
     using ibrav=0 with symmetry is DISCOURAGED, use correct ibrav instead
     tcpu =   3934.7    self-consistency for image  10
     Message from routine setup:
     using ibrav=0 with symmetry is DISCOURAGED, use correct ibrav instead

     activation energy (->) = 620.704702 eV
     activation energy (<-) = 622.650115 eV

     image        energy (eV)        error (eV/A)        frozen

         1    -133596.3460717            0.672891            F
         2    -133596.7285246            0.776378            F
         3    -133593.1109498           13.438719            F
         4    -133596.0670472            3.451751            F
         5    -132975.6413695          346.853010            F
         6    -133090.4349001          290.678857            F
         7    -133591.1965588            4.894949            F
         8    -133594.7724324           10.147912            F
         9    -133596.9615354            1.523371            F
        10    -133598.2914842            0.528881            F

     path length          = 15.128 bohr
     inter-image distance =  1.681 bohr

     ------------------------------ iteration  11 ------------------------------

     tcpu =   3951.9    self-consistency for image   1
     Message from routine setup:
     using ibrav=0 with symmetry is DISCOURAGED, use correct ibrav instead
     tcpu =   3974.9    self-consistency for image   2
     Message from routine setup:
     using ibrav=0 with symmetry is DISCOURAGED, use correct ibrav instead
     tcpu =   3998.3    self-consistency for image   3
     Message from routine setup:
     using ibrav=0 with symmetry is DISCOURAGED, use correct ibrav instead
     tcpu =   4031.4    self-consistency for image   4
     Message from routine setup:
     using ibrav=0 with symmetry is DISCOURAGED, use correct ibrav instead
     tcpu =   4097.5    self-consistency for image   5
     Message from routine setup:
     using ibrav=0 with symmetry is DISCOURAGED, use correct ibrav instead
     tcpu =   4174.8    self-consistency for image   6
     Message from routine setup:
     using ibrav=0 with symmetry is DISCOURAGED, use correct ibrav instead
     tcpu =   4253.7    self-consistency for image   7
     Message from routine setup:
     using ibrav=0 with symmetry is DISCOURAGED, use correct ibrav instead
     tcpu =   4313.3    self-consistency for image   8
     Message from routine setup:
     using ibrav=0 with symmetry is DISCOURAGED, use correct ibrav instead
     tcpu =   4352.2    self-consistency for image   9
     Message from routine setup:
     using ibrav=0 with symmetry is DISCOURAGED, use correct ibrav instead
     tcpu =   4378.8    self-consistency for image  10
     Message from routine setup:
     using ibrav=0 with symmetry is DISCOURAGED, use correct ibrav instead

     activation energy (->) = 551.562512 eV
     activation energy (<-) = 553.501844 eV

     image        energy (eV)        error (eV/A)        frozen

         1    -133596.3530533            0.668418            F
         2    -133596.7354208            0.773797            F
         3    -133593.2554206           13.064000            F
         4    -133596.0976264            4.332418            F
         5    -133044.7905412          343.087420            F
         6    -133154.0983849          304.309435            F
         7    -133592.7289200            9.150714            F
         8    -133594.8641616            9.173136            F
         9    -133596.9698245            1.522675            F
        10    -133598.2923852            0.527239            F

     path length          = 16.008 bohr
     inter-image distance =  1.779 bohr

     ------------------------------ iteration  12 ------------------------------

     tcpu =   4399.0    self-consistency for image   1
     Message from routine setup:
     using ibrav=0 with symmetry is DISCOURAGED, use correct ibrav instead
     tcpu =   4421.3    self-consistency for image   2
     Message from routine setup:
     using ibrav=0 with symmetry is DISCOURAGED, use correct ibrav instead
     tcpu =   4444.2    self-consistency for image   3
     Message from routine setup:
     using ibrav=0 with symmetry is DISCOURAGED, use correct ibrav instead
     tcpu =   4480.7    self-consistency for image   4
     Message from routine setup:
     using ibrav=0 with symmetry is DISCOURAGED, use correct ibrav instead
     tcpu =   4541.5    self-consistency for image   5
     Message from routine setup:
     using ibrav=0 with symmetry is DISCOURAGED, use correct ibrav instead
     tcpu =   4622.7    self-consistency for image   6
     Message from routine setup:
     using ibrav=0 with symmetry is DISCOURAGED, use correct ibrav instead
     tcpu =   4706.8    self-consistency for image   7
     Message from routine setup:
     using ibrav=0 with symmetry is DISCOURAGED, use correct ibrav instead
     tcpu =   4776.0    self-consistency for image   8
     Message from routine setup:
     using ibrav=0 with symmetry is DISCOURAGED, use correct ibrav instead
     tcpu =   4817.5    self-consistency for image   9
     Message from routine setup:
     using ibrav=0 with symmetry is DISCOURAGED, use correct ibrav instead
     tcpu =   4847.5    self-consistency for image  10
     Message from routine setup:
     using ibrav=0 with symmetry is DISCOURAGED, use correct ibrav instead

     activation energy (->) = 486.680023 eV
     activation energy (<-) = 488.613329 eV

     image        energy (eV)        error (eV/A)        frozen

         1    -133596.3599509            0.664689            F
         2    -133596.7422419            0.771388            F
         3    -133593.4105539           14.139770            F
         4    -133595.7174772            4.958411            F
         5    -133109.6799281          340.817843            F
         6    -133212.2795449          304.856891            F
         7    -133593.7084603            8.039672            F
         8    -133594.9523221            8.212944            F
         9    -133596.9780268            1.524356            F
        10    -133598.2932570            0.513775            F

     path length          = 16.964 bohr
     inter-image distance =  1.885 bohr

     ------------------------------ iteration  13 ------------------------------

     tcpu =   4864.3    self-consistency for image   1
     Message from routine setup:
     using ibrav=0 with symmetry is DISCOURAGED, use correct ibrav instead
     tcpu =   4886.2    self-consistency for image   2
     Message from routine setup:
     using ibrav=0 with symmetry is DISCOURAGED, use correct ibrav instead
     tcpu =   4910.0    self-consistency for image   3
     Message from routine setup:
     using ibrav=0 with symmetry is DISCOURAGED, use correct ibrav instead
     tcpu =   4943.6    self-consistency for image   4
     Message from routine setup:
     using ibrav=0 with symmetry is DISCOURAGED, use correct ibrav instead
     tcpu =   5005.3    self-consistency for image   5
     Message from routine setup:
     using ibrav=0 with symmetry is DISCOURAGED, use correct ibrav instead
     tcpu =   5086.5    self-consistency for image   6
     Message from routine setup:
     using ibrav=0 with symmetry is DISCOURAGED, use correct ibrav instead
     tcpu =   5167.2    self-consistency for image   7
     Message from routine setup:
     using ibrav=0 with symmetry is DISCOURAGED, use correct ibrav instead
     tcpu =   5231.7    self-consistency for image   8
     Message from routine setup:
     using ibrav=0 with symmetry is DISCOURAGED, use correct ibrav instead
     tcpu =   5272.4    self-consistency for image   9
     Message from routine setup:
     using ibrav=0 with symmetry is DISCOURAGED, use correct ibrav instead
     tcpu =   5300.2    self-consistency for image  10
     Message from routine setup:
     using ibrav=0 with symmetry is DISCOURAGED, use correct ibrav instead

     activation energy (->) = 424.634815 eV
     activation energy (<-) = 426.562173 eV

     image        energy (eV)        error (eV/A)        frozen

         1    -133596.3667616            0.656764            F
         2    -133596.7489552            0.768792            F
         3    -133593.5760793           15.492336            F
         4    -133595.2274201            5.516395            F
         5    -133171.7319462          332.479839            F
         6    -133265.8164902          295.984995            F
         7    -133594.2404948            6.388467            F
         8    -133595.0369788            8.086795            F
         9    -133596.9861007            1.523679            F
        10    -133598.2941195            0.504785            F

     path length          = 17.952 bohr
     inter-image distance =  1.995 bohr

     ------------------------------ iteration  14 ------------------------------

     tcpu =   5317.1    self-consistency for image   1
     Message from routine setup:
     using ibrav=0 with symmetry is DISCOURAGED, use correct ibrav instead
     tcpu =   5339.1    self-consistency for image   2
     Message from routine setup:
     using ibrav=0 with symmetry is DISCOURAGED, use correct ibrav instead
     tcpu =   5363.5    self-consistency for image   3
     Message from routine setup:
     using ibrav=0 with symmetry is DISCOURAGED, use correct ibrav instead
     tcpu =   5396.9    self-consistency for image   4
     Message from routine setup:
     using ibrav=0 with symmetry is DISCOURAGED, use correct ibrav instead
     tcpu =   5455.4    self-consistency for image   5
     Message from routine setup:
     using ibrav=0 with symmetry is DISCOURAGED, use correct ibrav instead
     tcpu =   5533.8    self-consistency for image   6
     Message from routine setup:
     using ibrav=0 with symmetry is DISCOURAGED, use correct ibrav instead
     tcpu =   5607.6    self-consistency for image   7
     Message from routine setup:
     using ibrav=0 with symmetry is DISCOURAGED, use correct ibrav instead
     tcpu =   5661.3    self-consistency for image   8
     Message from routine setup:
     using ibrav=0 with symmetry is DISCOURAGED, use correct ibrav instead
     tcpu =   5700.9    self-consistency for image   9
     Message from routine setup:
     using ibrav=0 with symmetry is DISCOURAGED, use correct ibrav instead
     tcpu =   5731.4    self-consistency for image  10
     Message from routine setup:
     using ibrav=0 with symmetry is DISCOURAGED, use correct ibrav instead

     activation energy (->) = 366.171354 eV
     activation energy (<-) = 368.092833 eV

     image        energy (eV)        error (eV/A)        frozen

         1    -133596.3734878            0.656940            F
         2    -133596.7556012            0.766410            F
         3    -133593.7486616           15.924751            F
         4    -133594.7377615            6.039644            F
         5    -133230.2021333          316.954526            F
         6    -133314.5240634          279.040350            F
         7    -133594.5581941            5.212616            F
         8    -133595.1180428            8.040710            F
         9    -133596.9940985            1.525392            F
        10    -133598.2949663            0.497298            F

     path length          = 18.956 bohr
     inter-image distance =  2.106 bohr

     ------------------------------ iteration  15 ------------------------------

     tcpu =   5748.7    self-consistency for image   1
     Message from routine setup:
     using ibrav=0 with symmetry is DISCOURAGED, use correct ibrav instead
     tcpu =   5771.1    self-consistency for image   2
     Message from routine setup:
     using ibrav=0 with symmetry is DISCOURAGED, use correct ibrav instead
     tcpu =   5794.8    self-consistency for image   3
     Message from routine setup:
     using ibrav=0 with symmetry is DISCOURAGED, use correct ibrav instead
     tcpu =   5827.4    self-consistency for image   4
     Message from routine setup:
     using ibrav=0 with symmetry is DISCOURAGED, use correct ibrav instead
     tcpu =   5882.4    self-consistency for image   5
     Message from routine setup:
     using ibrav=0 with symmetry is DISCOURAGED, use correct ibrav instead
     tcpu =   5968.1    self-consistency for image   6
     Message from routine setup:
     using ibrav=0 with symmetry is DISCOURAGED, use correct ibrav instead
     tcpu =   6045.3    self-consistency for image   7
     Message from routine setup:
     using ibrav=0 with symmetry is DISCOURAGED, use correct ibrav instead
     tcpu =   6105.3    self-consistency for image   8
     Message from routine setup:
     using ibrav=0 with symmetry is DISCOURAGED, use correct ibrav instead
     tcpu =   6144.9    self-consistency for image   9
     Message from routine setup:
     using ibrav=0 with symmetry is DISCOURAGED, use correct ibrav instead
     tcpu =   6171.7    self-consistency for image  10
     Message from routine setup:
     using ibrav=0 with symmetry is DISCOURAGED, use correct ibrav instead

     activation energy (->) = 311.825511 eV
     activation energy (<-) = 313.741131 eV

     image        energy (eV)        error (eV/A)        frozen

         1    -133596.3801815            0.652841            F
         2    -133596.7621928            0.763792            F
         3    -133593.9248067           15.436577            F
         4    -133594.2934870            6.532524            F
         5    -133284.5546700          292.532847            F
         6    -133358.1969939          255.879070            F
         7    -133594.7610474            4.333271            F
         8    -133595.1957252            7.897949            F
         9    -133597.0020312            1.524750            F
        10    -133598.2958014            0.489408            F

     path length          = 19.966 bohr
     inter-image distance =  2.218 bohr

     ------------------------------ iteration  16 ------------------------------

     tcpu =   6189.2    self-consistency for image   1
     Message from routine setup:
     using ibrav=0 with symmetry is DISCOURAGED, use correct ibrav instead
     tcpu =   6210.8    self-consistency for image   2
     Message from routine setup:
     using ibrav=0 with symmetry is DISCOURAGED, use correct ibrav instead
     tcpu =   6238.3    self-consistency for image   3
     Message from routine setup:
     using ibrav=0 with symmetry is DISCOURAGED, use correct ibrav instead
     tcpu =   6269.1    self-consistency for image   4
     Message from routine setup:
     using ibrav=0 with symmetry is DISCOURAGED, use correct ibrav instead
     tcpu =   6323.1    self-consistency for image   5
     Message from routine setup:
     using ibrav=0 with symmetry is DISCOURAGED, use correct ibrav instead
     tcpu =   6402.4    self-consistency for image   6
     Message from routine setup:
     using ibrav=0 with symmetry is DISCOURAGED, use correct ibrav instead
     tcpu =   6483.1    self-consistency for image   7
     Message from routine setup:
     using ibrav=0 with symmetry is DISCOURAGED, use correct ibrav instead
     tcpu =   6537.9    self-consistency for image   8
     Message from routine setup:
     using ibrav=0 with symmetry is DISCOURAGED, use correct ibrav instead
     tcpu =   6577.6    self-consistency for image   9
     Message from routine setup:
     using ibrav=0 with symmetry is DISCOURAGED, use correct ibrav instead
     tcpu =   6608.2    self-consistency for image  10
     Message from routine setup:
     using ibrav=0 with symmetry is DISCOURAGED, use correct ibrav instead

     activation energy (->) = 262.134756 eV
     activation energy (<-) = 264.044512 eV

     image        energy (eV)        error (eV/A)        frozen

         1    -133596.3868789            0.645222            F
         2    -133596.7687948            0.761414            F
         3    -133594.1012727           14.565215            F
         4    -133593.9145934            6.994309            F
         5    -133334.2521229          259.456919            F
         6    -133396.8759757          230.103308            F
         7    -133594.8896452            3.635149            F
         8    -133595.2704523            7.693344            F
         9    -133597.0099874            1.526586            F
        10    -133598.2966349            0.481871            F

     path length          = 20.976 bohr
     inter-image distance =  2.331 bohr

     ------------------------------ iteration  17 ------------------------------

     tcpu =   6626.0    self-consistency for image   1
     Message from routine setup:
     using ibrav=0 with symmetry is DISCOURAGED, use correct ibrav instead
     tcpu =   6649.6    self-consistency for image   2
     Message from routine setup:
     using ibrav=0 with symmetry is DISCOURAGED, use correct ibrav instead
     tcpu =   6680.1    self-consistency for image   3
     Message from routine setup:
     using ibrav=0 with symmetry is DISCOURAGED, use correct ibrav instead
     tcpu =   6710.5    self-consistency for image   4
     Message from routine setup:
     using ibrav=0 with symmetry is DISCOURAGED, use correct ibrav instead
     tcpu =   6764.5    self-consistency for image   5
     Message from routine setup:
     using ibrav=0 with symmetry is DISCOURAGED, use correct ibrav instead
     tcpu =   6855.1    self-consistency for image   6
     Message from routine setup:
     using ibrav=0 with symmetry is DISCOURAGED, use correct ibrav instead
     tcpu =   6937.4    self-consistency for image   7
     Message from routine setup:
     using ibrav=0 with symmetry is DISCOURAGED, use correct ibrav instead
     tcpu =   6992.1    self-consistency for image   8
     Message from routine setup:
     using ibrav=0 with symmetry is DISCOURAGED, use correct ibrav instead
     tcpu =   7030.5    self-consistency for image   9
     Message from routine setup:
     using ibrav=0 with symmetry is DISCOURAGED, use correct ibrav instead
     tcpu =   7057.5    self-consistency for image  10
     Message from routine setup:
     using ibrav=0 with symmetry is DISCOURAGED, use correct ibrav instead

     activation energy (->) = 217.770664 eV
     activation energy (<-) = 219.674480 eV

     image        energy (eV)        error (eV/A)        frozen

         1    -133596.3936510            0.644998            F
         2    -133596.7754614            0.758757            F
         3    -133594.2763358           14.085363            F
         4    -133593.6055496            7.423692            F
         5    -133378.6229870          227.042062            F
         6    -133431.1433986          207.265471            F
         7    -133594.9673455            3.594086            F
         8    -133595.3427900            7.448069            F
         9    -133597.0180189            1.525992            F
        10    -133598.2974672            0.473820            F

     path length          = 21.982 bohr
     inter-image distance =  2.442 bohr

     ------------------------------ iteration  18 ------------------------------

     tcpu =   7074.7    self-consistency for image   1
     Message from routine setup:
     using ibrav=0 with symmetry is DISCOURAGED, use correct ibrav instead
     tcpu =   7098.7    self-consistency for image   2
     Message from routine setup:
     using ibrav=0 with symmetry is DISCOURAGED, use correct ibrav instead
     tcpu =   7121.4    self-consistency for image   3
     Message from routine setup:
     using ibrav=0 with symmetry is DISCOURAGED, use correct ibrav instead
     tcpu =   7152.9    self-consistency for image   4
     Message from routine setup:
     using ibrav=0 with symmetry is DISCOURAGED, use correct ibrav instead
     tcpu =   7204.7    self-consistency for image   5
     Message from routine setup:
     using ibrav=0 with symmetry is DISCOURAGED, use correct ibrav instead
     tcpu =   7291.6    self-consistency for image   6
     Message from routine setup:
     using ibrav=0 with symmetry is DISCOURAGED, use correct ibrav instead
     tcpu =   7379.6    self-consistency for image   7
     Message from routine setup:
     using ibrav=0 with symmetry is DISCOURAGED, use correct ibrav instead
     tcpu =   7439.0    self-consistency for image   8
     Message from routine setup:
     using ibrav=0 with symmetry is DISCOURAGED, use correct ibrav instead
     tcpu =   7476.3    self-consistency for image   9
     Message from routine setup:
     using ibrav=0 with symmetry is DISCOURAGED, use correct ibrav instead
     tcpu =   7506.8    self-consistency for image  10
     Message from routine setup:
     using ibrav=0 with symmetry is DISCOURAGED, use correct ibrav instead

     activation energy (->) = 178.529805 eV
     activation energy (<-) = 180.427550 eV

     image        energy (eV)        error (eV/A)        frozen

         1    -133596.4005734            0.641386            F
         2    -133596.7822623            0.756102            F
         3    -133594.4503127           13.538851            F
         4    -133593.3650926            7.820852            F
         5    -133417.8707685          214.856610            F
         6    -133462.9861913          200.789249            F
         7    -133595.0094331            4.053169            F
         8    -133595.4132211            7.177399            F
         9    -133597.0262350            1.527970            F
        10    -133598.2983187            0.465474            F

     path length          = 22.983 bohr
     inter-image distance =  2.554 bohr

     ------------------------------ iteration  19 ------------------------------

     tcpu =   7524.2    self-consistency for image   1
     Message from routine setup:
     using ibrav=0 with symmetry is DISCOURAGED, use correct ibrav instead
     tcpu =   7546.8    self-consistency for image   2
     Message from routine setup:
     using ibrav=0 with symmetry is DISCOURAGED, use correct ibrav instead
     tcpu =   7569.6    self-consistency for image   3
     Message from routine setup:
     using ibrav=0 with symmetry is DISCOURAGED, use correct ibrav instead
     tcpu =   7601.3    self-consistency for image   4
     Message from routine setup:
     using ibrav=0 with symmetry is DISCOURAGED, use correct ibrav instead
     tcpu =   7652.9    self-consistency for image   5
     Message from routine setup:
     using ibrav=0 with symmetry is DISCOURAGED, use correct ibrav instead
     tcpu =   7744.7    self-consistency for image   6
     Message from routine setup:
     using ibrav=0 with symmetry is DISCOURAGED, use correct ibrav instead
     tcpu =   7829.4    self-consistency for image   7
     Message from routine setup:
     using ibrav=0 with symmetry is DISCOURAGED, use correct ibrav instead
     tcpu =   7886.0    self-consistency for image   8
     Message from routine setup:
     using ibrav=0 with symmetry is DISCOURAGED, use correct ibrav instead
     tcpu =   7922.2    self-consistency for image   9
     Message from routine setup:
     using ibrav=0 with symmetry is DISCOURAGED, use correct ibrav instead
     tcpu =   7949.2    self-consistency for image  10
     Message from routine setup:
     using ibrav=0 with symmetry is DISCOURAGED, use correct ibrav instead

     activation energy (->) = 144.042250 eV
     activation energy (<-) = 145.934070 eV

     image        energy (eV)        error (eV/A)        frozen

         1    -133596.4073230            0.637298            F
         2    -133596.7888949            0.753327            F
         3    -133594.6137838           12.970312            F
         4    -133593.1942116            8.166760            F
         5    -133452.3650734          238.185794            F
         6    -133492.9188233          185.357313            F
         7    -133595.0276654            4.396303            F
         8    -133595.4785894            6.906414            F
         9    -133597.0342389            1.527522            F
        10    -133598.2991433            0.459027            F

     path length          = 23.936 bohr
     inter-image distance =  2.660 bohr

     ------------------------------ iteration  20 ------------------------------

     tcpu =   7966.5    self-consistency for image   1
     Message from routine setup:
     using ibrav=0 with symmetry is DISCOURAGED, use correct ibrav instead
     tcpu =   7988.9    self-consistency for image   2
     Message from routine setup:
     using ibrav=0 with symmetry is DISCOURAGED, use correct ibrav instead
     tcpu =   8012.3    self-consistency for image   3
     Message from routine setup:
     using ibrav=0 with symmetry is DISCOURAGED, use correct ibrav instead
     tcpu =   8046.4    self-consistency for image   4
     Message from routine setup:
     using ibrav=0 with symmetry is DISCOURAGED, use correct ibrav instead
     tcpu =   8095.9    self-consistency for image   5
     Message from routine setup:
     using ibrav=0 with symmetry is DISCOURAGED, use correct ibrav instead
     tcpu =   8190.6    self-consistency for image   6
     Message from routine setup:
     using ibrav=0 with symmetry is DISCOURAGED, use correct ibrav instead
     tcpu =   8275.7    self-consistency for image   7
     Message from routine setup:
     using ibrav=0 with symmetry is DISCOURAGED, use correct ibrav instead
     tcpu =   8334.3    self-consistency for image   8
     Message from routine setup:
     using ibrav=0 with symmetry is DISCOURAGED, use correct ibrav instead
     tcpu =   8370.3    self-consistency for image   9
     Message from routine setup:
     using ibrav=0 with symmetry is DISCOURAGED, use correct ibrav instead
     tcpu =   8400.5    self-consistency for image  10
     Message from routine setup:
     using ibrav=0 with symmetry is DISCOURAGED, use correct ibrav instead

     activation energy (->) = 108.148023 eV
     activation energy (<-) = 110.033647 eV

     image        energy (eV)        error (eV/A)        frozen

         1    -133596.4143694            0.633586            F
         2    -133596.7958076            0.750401            F
         3    -133594.7769682           12.354897            F
         4    -133593.0712991            8.502445            F
         5    -133488.2663467          225.007005            F
         6    -133519.6646645          155.617148            F
         7    -133595.0317374            4.858985            F
         8    -133595.5434723            6.621711            F
         9    -133597.0426169            1.529526            F
        10    -133598.2999937            0.450849            F

     path length          = 24.916 bohr
     inter-image distance =  2.768 bohr

     ------------------------------ iteration  21 ------------------------------

     tcpu =   8418.1    self-consistency for image   1
     Message from routine setup:
     using ibrav=0 with symmetry is DISCOURAGED, use correct ibrav instead
     tcpu =   8440.2    self-consistency for image   2
     Message from routine setup:
     using ibrav=0 with symmetry is DISCOURAGED, use correct ibrav instead
     tcpu =   8463.5    self-consistency for image   3
     Message from routine setup:
     using ibrav=0 with symmetry is DISCOURAGED, use correct ibrav instead
     tcpu =   8497.7    self-consistency for image   4
     Message from routine setup:
     using ibrav=0 with symmetry is DISCOURAGED, use correct ibrav instead
     tcpu =   8546.2    self-consistency for image   5
     Message from routine setup:
     using ibrav=0 with symmetry is DISCOURAGED, use correct ibrav instead
     tcpu =   8626.5    self-consistency for image   6
     Message from routine setup:
     using ibrav=0 with symmetry is DISCOURAGED, use correct ibrav instead
     tcpu =   8704.6    self-consistency for image   7
     Message from routine setup:
     using ibrav=0 with symmetry is DISCOURAGED, use correct ibrav instead
     tcpu =   8754.1    self-consistency for image   8
     Message from routine setup:
     using ibrav=0 with symmetry is DISCOURAGED, use correct ibrav instead
     tcpu =   8789.7    self-consistency for image   9
     Message from routine setup:
     using ibrav=0 with symmetry is DISCOURAGED, use correct ibrav instead
     tcpu =   8816.0    self-consistency for image  10
     Message from routine setup:
     using ibrav=0 with symmetry is DISCOURAGED, use correct ibrav instead

     activation energy (->) =  81.342758 eV
     activation energy (<-) =  83.223165 eV

     image        energy (eV)        error (eV/A)        frozen

         1    -133596.4203065            0.629352            F
         2    -133596.8016363            0.747941            F
         3    -133594.9074148           11.839709            F
         4    -133593.0077374            8.764077            F
         5    -133515.0775486          176.758120            F
         6    -133537.8097320          129.085340            F
         7    -133595.0291935            5.348270            F
         8    -133595.5954011            6.390312            F
         9    -133597.0496652            1.529167            F
        10    -133598.3007135            0.443994            F

     path length          = 25.714 bohr
     inter-image distance =  2.857 bohr

     ------------------------------ iteration  22 ------------------------------

     tcpu =   8832.9    self-consistency for image   1
     Message from routine setup:
     using ibrav=0 with symmetry is DISCOURAGED, use correct ibrav instead
     tcpu =   8852.5    self-consistency for image   2
     Message from routine setup:
     using ibrav=0 with symmetry is DISCOURAGED, use correct ibrav instead
     tcpu =   8871.9    self-consistency for image   3
     Message from routine setup:
     using ibrav=0 with symmetry is DISCOURAGED, use correct ibrav instead
     tcpu =   8905.7    self-consistency for image   4
     Message from routine setup:
     using ibrav=0 with symmetry is DISCOURAGED, use correct ibrav instead
     tcpu =   8955.7    self-consistency for image   5
     Message from routine setup:
     using ibrav=0 with symmetry is DISCOURAGED, use correct ibrav instead
     tcpu =   9030.3    self-consistency for image   6
     Message from routine setup:
     using ibrav=0 with symmetry is DISCOURAGED, use correct ibrav instead
     tcpu =   9099.5    self-consistency for image   7
     Message from routine setup:
     using ibrav=0 with symmetry is DISCOURAGED, use correct ibrav instead
     tcpu =   9144.9    self-consistency for image   8
     Message from routine setup:
     using ibrav=0 with symmetry is DISCOURAGED, use correct ibrav instead
     tcpu =   9177.3    self-consistency for image   9
     Message from routine setup:
     using ibrav=0 with symmetry is DISCOURAGED, use correct ibrav instead
     tcpu =   9206.0    self-consistency for image  10
     Message from routine setup:
     using ibrav=0 with symmetry is DISCOURAGED, use correct ibrav instead

     activation energy (->) =  65.376465 eV
     activation energy (<-) =  67.253101 eV

     image        energy (eV)        error (eV/A)        frozen

         1    -133596.4246029            0.624025            F
         2    -133596.8058338            0.743540            F
         3    -133594.9965971           11.480009            F
         4    -133592.9847024            8.947118            F
         5    -133531.0481380          136.324163            F
         6    -133548.2700906          109.985539            F
         7    -133595.0281573            5.732859            F
         8    -133595.6311332            6.227394            F
         9    -133597.0547791            1.530986            F
        10    -133598.3012392            0.440149            F

     path length          = 26.251 bohr
     inter-image distance =  2.917 bohr

     ------------------------------ iteration  23 ------------------------------

     tcpu =   9222.7    self-consistency for image   1
     Message from routine setup:
     using ibrav=0 with symmetry is DISCOURAGED, use correct ibrav instead
     tcpu =   9242.4    self-consistency for image   2
     Message from routine setup:
     using ibrav=0 with symmetry is DISCOURAGED, use correct ibrav instead
     tcpu =   9259.9    self-consistency for image   3
     Message from routine setup:
     using ibrav=0 with symmetry is DISCOURAGED, use correct ibrav instead
     tcpu =   9293.6    self-consistency for image   4
     Message from routine setup:
     using ibrav=0 with symmetry is DISCOURAGED, use correct ibrav instead
     tcpu =   9339.4    self-consistency for image   5
     Message from routine setup:
     using ibrav=0 with symmetry is DISCOURAGED, use correct ibrav instead
     tcpu =   9407.4    self-consistency for image   6
     Message from routine setup:
     using ibrav=0 with symmetry is DISCOURAGED, use correct ibrav instead
     tcpu =   9465.5    self-consistency for image   7
     Message from routine setup:
     using ibrav=0 with symmetry is DISCOURAGED, use correct ibrav instead
     tcpu =   9508.8    self-consistency for image   8
     Message from routine setup:
     using ibrav=0 with symmetry is DISCOURAGED, use correct ibrav instead
     tcpu =   9538.6    self-consistency for image   9
     Message from routine setup:
     using ibrav=0 with symmetry is DISCOURAGED, use correct ibrav instead
     tcpu =   9560.3    self-consistency for image  10
     Message from routine setup:
     using ibrav=0 with symmetry is DISCOURAGED, use correct ibrav instead

     activation energy (->) =  55.348014 eV
     activation energy (<-) =  57.221700 eV

     image        energy (eV)        error (eV/A)        frozen

         1    -133596.4279592            0.622813            F
         2    -133596.8090964            0.708545            F
         3    -133595.0624247           11.216320            F
         4    -133592.9805253            9.082973            F
         5    -133541.0799457          107.957749            F
         6    -133554.9012298           96.581783            F
         7    -133595.0304390            6.016109            F
         8    -133595.6577811            6.102676            F
         9    -133597.0587388            1.520941            F
        10    -133598.3016457            0.437287            F

     path length          = 26.627 bohr
     inter-image distance =  2.959 bohr

     ------------------------------ iteration  24 ------------------------------

     tcpu =   9576.6    self-consistency for image   1
     Message from routine setup:
     using ibrav=0 with symmetry is DISCOURAGED, use correct ibrav instead
     tcpu =   9594.0    self-consistency for image   2
     Message from routine setup:
     using ibrav=0 with symmetry is DISCOURAGED, use correct ibrav instead
     tcpu =   9610.2    self-consistency for image   3
     Message from routine setup:
     using ibrav=0 with symmetry is DISCOURAGED, use correct ibrav instead
     tcpu =   9639.5    self-consistency for image   4
     Message from routine setup:
     using ibrav=0 with symmetry is DISCOURAGED, use correct ibrav instead
     tcpu =   9682.1    self-consistency for image   5
     Message from routine setup:
     using ibrav=0 with symmetry is DISCOURAGED, use correct ibrav instead
     tcpu =   9743.8    self-consistency for image   6
     Message from routine setup:
     using ibrav=0 with symmetry is DISCOURAGED, use correct ibrav instead
     tcpu =   9800.0    self-consistency for image   7
     Message from routine setup:
     using ibrav=0 with symmetry is DISCOURAGED, use correct ibrav instead
     tcpu =   9835.8    self-consistency for image   8
     Message from routine setup:
     using ibrav=0 with symmetry is DISCOURAGED, use correct ibrav instead
     tcpu =   9866.3    self-consistency for image   9
     Message from routine setup:
     using ibrav=0 with symmetry is DISCOURAGED, use correct ibrav instead
     tcpu =   9887.6    self-consistency for image  10
     Message from routine setup:
     using ibrav=0 with symmetry is DISCOURAGED, use correct ibrav instead

     activation energy (->) =  49.000243 eV
     activation energy (<-) =  50.871587 eV

     image        energy (eV)        error (eV/A)        frozen

         1    -133596.4306269            0.596488            F
         2    -133596.8116840            0.716058            F
         3    -133595.1121191           11.021202            F
         4    -133592.9864212            9.184331            F
         5    -133547.4303837           91.345079            F
         6    -133559.2890433           87.982163            F
         7    -133595.0357349            6.195858            F
         8    -133595.6781434            6.005676            F
         9    -133597.0619292            1.524893            F
        10    -133598.3019708            0.434714            F

     path length          = 26.883 bohr
     inter-image distance =  2.987 bohr

     ------------------------------ iteration  25 ------------------------------

     tcpu =   9903.9    self-consistency for image   1
     Message from routine setup:
     using ibrav=0 with symmetry is DISCOURAGED, use correct ibrav instead
     tcpu =   9925.3    self-consistency for image   2
     Message from routine setup:
     using ibrav=0 with symmetry is DISCOURAGED, use correct ibrav instead
     tcpu =   9941.7    self-consistency for image   3
     Message from routine setup:
     using ibrav=0 with symmetry is DISCOURAGED, use correct ibrav instead
     tcpu =   9968.7    self-consistency for image   4
     Message from routine setup:
     using ibrav=0 with symmetry is DISCOURAGED, use correct ibrav instead
     tcpu =  10010.9    self-consistency for image   5
     Message from routine setup:
     using ibrav=0 with symmetry is DISCOURAGED, use correct ibrav instead
     tcpu =  10079.9    self-consistency for image   6
     Message from routine setup:
     using ibrav=0 with symmetry is DISCOURAGED, use correct ibrav instead
     tcpu =  10136.9    self-consistency for image   7
     Message from routine setup:
     using ibrav=0 with symmetry is DISCOURAGED, use correct ibrav instead
     tcpu =  10172.6    self-consistency for image   8
     Message from routine setup:
     using ibrav=0 with symmetry is DISCOURAGED, use correct ibrav instead
     tcpu =  10200.0    self-consistency for image   9
     Message from routine setup:
     using ibrav=0 with symmetry is DISCOURAGED, use correct ibrav instead
     tcpu =  10222.6    self-consistency for image  10
     Message from routine setup:
     using ibrav=0 with symmetry is DISCOURAGED, use correct ibrav instead

     activation energy (->) =  43.603965 eV
     activation energy (<-) =  45.472813 eV

     image        energy (eV)        error (eV/A)        frozen

         1    -133596.4334686            0.620774            F
         2    -133596.8144342            0.713499            F
         3    -133595.1626616           10.824819            F
         4    -133592.9994122            9.284025            F
         5    -133552.8295041           80.705014            F
         6    -133563.2972145           81.779080            F
         7    -133595.0444498            6.328774            F
         8    -133595.6990671            5.905725            F
         9    -133597.0653275            1.524475            F
        10    -133598.3023176            0.432012            F

     path length          = 27.119 bohr
     inter-image distance =  3.013 bohr

     ------------------------------ iteration  26 ------------------------------

     tcpu =  10239.0    self-consistency for image   1
     Message from routine setup:
     using ibrav=0 with symmetry is DISCOURAGED, use correct ibrav instead
     tcpu =  10258.9    self-consistency for image   2
     Message from routine setup:
     using ibrav=0 with symmetry is DISCOURAGED, use correct ibrav instead
     tcpu =  10278.6    self-consistency for image   3
     Message from routine setup:
     using ibrav=0 with symmetry is DISCOURAGED, use correct ibrav instead
     tcpu =  10310.9    self-consistency for image   4
     Message from routine setup:
     using ibrav=0 with symmetry is DISCOURAGED, use correct ibrav instead
     tcpu =  10352.7    self-consistency for image   5
     Message from routine setup:
     using ibrav=0 with symmetry is DISCOURAGED, use correct ibrav instead
     tcpu =  10413.4    self-consistency for image   6
     Message from routine setup:
     using ibrav=0 with symmetry is DISCOURAGED, use correct ibrav instead
     tcpu =  10479.9    self-consistency for image   7
     Message from routine setup:
     using ibrav=0 with symmetry is DISCOURAGED, use correct ibrav instead
     tcpu =  10514.5    self-consistency for image   8
     Message from routine setup:
     using ibrav=0 with symmetry is DISCOURAGED, use correct ibrav instead
     tcpu =  10543.4    self-consistency for image   9
     Message from routine setup:
     using ibrav=0 with symmetry is DISCOURAGED, use correct ibrav instead
     tcpu =  10571.7    self-consistency for image  10
     Message from routine setup:
     using ibrav=0 with symmetry is DISCOURAGED, use correct ibrav instead

     activation energy (->) =  37.976874 eV
     activation energy (<-) =  39.842467 eV

     image        energy (eV)        error (eV/A)        frozen

         1    -133596.4371683            0.617081            F
         2    -133596.8179876            0.738637            F
         3    -133595.2255702           10.578220            F
         4    -133593.0213530            9.409386            F
         5    -133558.4602941           76.951524            F
         6    -133567.9183903           77.835481            F
         7    -133595.0582427            6.411647            F
         8    -133595.7253546            5.779817            F
         9    -133597.0697430            1.532542            F
        10    -133598.3027612            0.426972            F

     path length          = 27.390 bohr
     inter-image distance =  3.043 bohr

     ------------------------------ iteration  27 ------------------------------

     tcpu =  10588.9    self-consistency for image   1
     Message from routine setup:
     using ibrav=0 with symmetry is DISCOURAGED, use correct ibrav instead
     tcpu =  10610.8    self-consistency for image   2
     Message from routine setup:
     using ibrav=0 with symmetry is DISCOURAGED, use correct ibrav instead
     tcpu =  10630.6    self-consistency for image   3
     Message from routine setup:
     using ibrav=0 with symmetry is DISCOURAGED, use correct ibrav instead
     tcpu =  10667.5    self-consistency for image   4
     Message from routine setup:
     using ibrav=0 with symmetry is DISCOURAGED, use correct ibrav instead
     tcpu =  10716.6    self-consistency for image   5
     Message from routine setup:
     using ibrav=0 with symmetry is DISCOURAGED, use correct ibrav instead
     tcpu =  10778.5    self-consistency for image   6
     Message from routine setup:
     using ibrav=0 with symmetry is DISCOURAGED, use correct ibrav instead
     tcpu =  10846.1    self-consistency for image   7
     Message from routine setup:
     using ibrav=0 with symmetry is DISCOURAGED, use correct ibrav instead
     tcpu =  10878.5    self-consistency for image   8
     Message from routine setup:
     using ibrav=0 with symmetry is DISCOURAGED, use correct ibrav instead
     tcpu =  10910.3    self-consistency for image   9
     Message from routine setup:
     using ibrav=0 with symmetry is DISCOURAGED, use correct ibrav instead
     tcpu =  10940.9    self-consistency for image  10
     Message from routine setup:
     using ibrav=0 with symmetry is DISCOURAGED, use correct ibrav instead

     activation energy (->) =  31.408389 eV
     activation energy (<-) =  33.269640 eV

     image        energy (eV)        error (eV/A)        frozen

         1    -133596.4421118            0.616090            F
         2    -133596.8227633            0.737873            F
         3    -133595.3064291           10.255339            F
         4    -133593.0548264            9.586934            F
         5    -133565.0337224           93.078745            F
         6    -133573.6370452           74.047217            F
         7    -133595.0787607            6.426727            F
         8    -133595.7594230            5.614297            F
         9    -133597.0756401            1.533234            F
        10    -133598.3033625            0.419647            F

     path length          = 27.726 bohr
     inter-image distance =  3.081 bohr

     ------------------------------ iteration  28 ------------------------------

     tcpu =  10957.4    self-consistency for image   1
     Message from routine setup:
     using ibrav=0 with symmetry is DISCOURAGED, use correct ibrav instead
     tcpu =  10983.3    self-consistency for image   2
     Message from routine setup:
     using ibrav=0 with symmetry is DISCOURAGED, use correct ibrav instead
     tcpu =  11012.8    self-consistency for image   3
     Message from routine setup:
     using ibrav=0 with symmetry is DISCOURAGED, use correct ibrav instead
     tcpu =  11057.6    self-consistency for image   4
     Message from routine setup:
     using ibrav=0 with symmetry is DISCOURAGED, use correct ibrav instead
     tcpu =  11103.8    self-consistency for image   5
     Message from routine setup:
     using ibrav=0 with symmetry is DISCOURAGED, use correct ibrav instead
     tcpu =  11185.9    self-consistency for image   6
     Message from routine setup:
     using ibrav=0 with symmetry is DISCOURAGED, use correct ibrav instead
     tcpu =  11263.7    self-consistency for image   7
     Message from routine setup:
     using ibrav=0 with symmetry is DISCOURAGED, use correct ibrav instead
     tcpu =  11304.3    self-consistency for image   8
     Message from routine setup:
     using ibrav=0 with symmetry is DISCOURAGED, use correct ibrav instead
     tcpu =  11335.8    self-consistency for image   9
     Message from routine setup:
     using ibrav=0 with symmetry is DISCOURAGED, use correct ibrav instead
     tcpu =  11367.2    self-consistency for image  10
     Message from routine setup:
     using ibrav=0 with symmetry is DISCOURAGED, use correct ibrav instead

     activation energy (->) =  20.139861 eV
     activation energy (<-) =  21.993482 eV

     image        energy (eV)        error (eV/A)        frozen

         1    -133596.4507692            0.610704            F
         2    -133596.8311145            0.734147            F
         3    -133595.4416186            9.675543            F
         4    -133593.1172889           10.046655            F
         5    -133576.3109085           88.210407            F
         6    -133581.9226279           52.920885            F
         7    -133595.1162661            6.774470            F
         8    -133595.8170613            5.310635            F
         9    -133597.0859652            1.534426            F
        10    -133598.3043900            0.408758            F

     path length          = 28.300 bohr
     inter-image distance =  3.144 bohr

     ------------------------------ iteration  29 ------------------------------

     tcpu =  11384.1    self-consistency for image   1
     Message from routine setup:
     using ibrav=0 with symmetry is DISCOURAGED, use correct ibrav instead
     tcpu =  11408.2    self-consistency for image   2
     Message from routine setup:
     using ibrav=0 with symmetry is DISCOURAGED, use correct ibrav instead
     tcpu =  11431.4    self-consistency for image   3
     Message from routine setup:
     using ibrav=0 with symmetry is DISCOURAGED, use correct ibrav instead
     tcpu =  11466.5    self-consistency for image   4
     Message from routine setup:
     using ibrav=0 with symmetry is DISCOURAGED, use correct ibrav instead
     tcpu =  11515.4    self-consistency for image   5
     Message from routine setup:
     using ibrav=0 with symmetry is DISCOURAGED, use correct ibrav instead
     tcpu =  11591.8    self-consistency for image   6
     Message from routine setup:
     using ibrav=0 with symmetry is DISCOURAGED, use correct ibrav instead
     tcpu =  11659.9    self-consistency for image   7
     Message from routine setup:
     using ibrav=0 with symmetry is DISCOURAGED, use correct ibrav instead
     tcpu =  11695.8    self-consistency for image   8
     Message from routine setup:
     using ibrav=0 with symmetry is DISCOURAGED, use correct ibrav instead
     tcpu =  11732.5    self-consistency for image   9
     Message from routine setup:
     using ibrav=0 with symmetry is DISCOURAGED, use correct ibrav instead
     tcpu =  11759.4    self-consistency for image  10
     Message from routine setup:
     using ibrav=0 with symmetry is DISCOURAGED, use correct ibrav instead

     activation energy (->) =  13.641165 eV
     activation energy (<-) =  15.488758 eV

     image        energy (eV)        error (eV/A)        frozen

         1    -133596.4576275            0.606856            F
         2    -133596.8377355            0.730280            F
         3    -133595.5432536            9.189578            F
         4    -133593.1692007           10.644674            F
         5    -133582.8164624           58.061826            F
         6    -133586.2094567           35.380673            F
         7    -133595.1472032            7.364937            F
         8    -133595.8609335            5.043842            F
         9    -133597.0941572            1.536074            F
        10    -133598.3052204            0.402738            F

     path length          = 28.738 bohr
     inter-image distance =  3.193 bohr

     ------------------------------ iteration  30 ------------------------------

     tcpu =  11776.6    self-consistency for image   1
     Message from routine setup:
     using ibrav=0 with symmetry is DISCOURAGED, use correct ibrav instead
     tcpu =  11797.9    self-consistency for image   2
     Message from routine setup:
     using ibrav=0 with symmetry is DISCOURAGED, use correct ibrav instead
     tcpu =  11817.2    self-consistency for image   3
     Message from routine setup:
     using ibrav=0 with symmetry is DISCOURAGED, use correct ibrav instead
     tcpu =  11849.1    self-consistency for image   4
     Message from routine setup:
     using ibrav=0 with symmetry is DISCOURAGED, use correct ibrav instead
     tcpu =  11889.8    self-consistency for image   5
     Message from routine setup:
     using ibrav=0 with symmetry is DISCOURAGED, use correct ibrav instead
     tcpu =  11943.5    self-consistency for image   6
     Message from routine setup:
     using ibrav=0 with symmetry is DISCOURAGED, use correct ibrav instead
     tcpu =  12001.6    self-consistency for image   7
     Message from routine setup:
     using ibrav=0 with symmetry is DISCOURAGED, use correct ibrav instead
     tcpu =  12032.1    self-consistency for image   8
     Message from routine setup:
     using ibrav=0 with symmetry is DISCOURAGED, use correct ibrav instead
     tcpu =  12063.4    self-consistency for image   9
     Message from routine setup:
     using ibrav=0 with symmetry is DISCOURAGED, use correct ibrav instead
     tcpu =  12085.5    self-consistency for image  10
     Message from routine setup:
     using ibrav=0 with symmetry is DISCOURAGED, use correct ibrav instead

     activation energy (->) =  11.527717 eV
     activation energy (<-) =  13.372370 eV

     image        energy (eV)        error (eV/A)        frozen

         1    -133596.4609860            0.604213            F
         2    -133596.8409774            0.726209            F
[...]

     activation energy (->) =   7.521452 eV
     activation energy (<-) =   8.575816 eV

     image        energy (eV)        error (eV/A)        frozen

         1    -133597.4827980            0.221260            F
         2    -133597.8511491            0.206934            F
         3    -133598.1468463            1.983533            F
         4    -133595.8238311            3.041323            F
         5    -133592.6467321            3.182276            F
         6    -133589.9613456            2.354326            F
         7    -133596.3444530            3.091593            F
         8    -133597.5326530            1.221376            F
         9    -133598.1114139            0.142718            F
        10    -133598.5371615            0.084724            F

     path length          = 34.797 bohr
     inter-image distance =  3.866 bohr

     ------------------------------ iteration 361 ------------------------------

     tcpu = 121903.3    self-consistency for image   1
     Message from routine setup:
     using ibrav=0 with symmetry is DISCOURAGED, use correct ibrav instead
     tcpu = 121934.8    self-consistency for image   2
     Message from routine setup:
     using ibrav=0 with symmetry is DISCOURAGED, use correct ibrav instead
     tcpu = 121975.5    self-consistency for image   3
     Message from routine setup:
     using ibrav=0 with symmetry is DISCOURAGED, use correct ibrav instead
     tcpu = 122020.0    self-consistency for image   4
     Message from routine setup:
     using ibrav=0 with symmetry is DISCOURAGED, use correct ibrav instead
     tcpu = 122062.8    self-consistency for image   5
     Message from routine setup:
     using ibrav=0 with symmetry is DISCOURAGED, use correct ibrav instead
     tcpu = 122109.8    self-consistency for image   6
     Message from routine setup:
     using ibrav=0 with symmetry is DISCOURAGED, use correct ibrav instead
     tcpu = 122157.0    self-consistency for image   7
     Message from routine setup:
     using ibrav=0 with symmetry is DISCOURAGED, use correct ibrav instead
     tcpu = 122200.2    self-consistency for image   8
     Message from routine setup:
     using ibrav=0 with symmetry is DISCOURAGED, use correct ibrav instead
     tcpu = 122241.4    self-consistency for image   9
     Message from routine setup:
     using ibrav=0 with symmetry is DISCOURAGED, use correct ibrav instead
     tcpu = 122269.4    self-consistency for image  10
     Message from routine setup:
     using ibrav=0 with symmetry is DISCOURAGED, use correct ibrav instead

     activation energy (->) =   7.528451 eV
     activation energy (<-) =   8.581556 eV

     image        energy (eV)        error (eV/A)        frozen

         1    -133597.4843710            0.220495            F
         2    -133597.8529125            0.206785            F
         3    -133598.1483281            1.978133            F
         4    -133595.8336943            3.043623            F
         5    -133592.6250270            3.202450            F
         6    -133589.9559201            2.388356            F
         7    -133596.3382396            3.078763            F
         8    -133597.5298729            1.225982            F
         9    -133598.1120010            0.155421            F
        10    -133598.5374763            0.086036            F

     path length          = 34.835 bohr
     inter-image distance =  3.871 bohr

     ------------------------------ iteration 362 ------------------------------

     tcpu = 122294.3    self-consistency for image   1
     Message from routine setup:
     using ibrav=0 with symmetry is DISCOURAGED, use correct ibrav instead
     tcpu = 122328.1    self-consistency for image   2
     Message from routine setup:
     using ibrav=0 with symmetry is DISCOURAGED, use correct ibrav instead
     tcpu = 122366.3    self-consistency for image   3
     Message from routine setup:
     using ibrav=0 with symmetry is DISCOURAGED, use correct ibrav instead
     tcpu = 122408.8    self-consistency for image   4
     Message from routine setup:
     using ibrav=0 with symmetry is DISCOURAGED, use correct ibrav instead
     tcpu = 122450.7    self-consistency for image   5
     Message from routine setup:
     using ibrav=0 with symmetry is DISCOURAGED, use correct ibrav instead
     tcpu = 122499.5    self-consistency for image   6
     Message from routine setup:
     using ibrav=0 with symmetry is DISCOURAGED, use correct ibrav instead
     tcpu = 122549.3    self-consistency for image   7
     Message from routine setup:
     using ibrav=0 with symmetry is DISCOURAGED, use correct ibrav instead
     tcpu = 122597.6    self-consistency for image   8
     Message from routine setup:
     using ibrav=0 with symmetry is DISCOURAGED, use correct ibrav instead
     tcpu = 122639.7    self-consistency for image   9
     Message from routine setup:
     using ibrav=0 with symmetry is DISCOURAGED, use correct ibrav instead
     tcpu = 122663.9    self-consistency for image  10
     Message from routine setup:
     using ibrav=0 with symmetry is DISCOURAGED, use correct ibrav instead

     activation energy (->) =   7.534869 eV
     activation energy (<-) =   8.586820 eV

     image        energy (eV)        error (eV/A)        frozen

         1    -133597.4857868            0.219758            F
         2    -133597.8545139            0.206269            F
         3    -133598.1497138            1.972665            F
         4    -133595.8424634            3.044978            F
         5    -133592.6048754            3.211881            F
         6    -133589.9509174            2.421505            F
         7    -133596.3327408            3.067077            F
         8    -133597.5273184            1.228745            F
         9    -133598.1125181            0.158671            F
        10    -133598.5377374            0.085115            F

     path length          = 34.869 bohr
     inter-image distance =  3.874 bohr

     ------------------------------ iteration 363 ------------------------------

     tcpu = 122685.9    self-consistency for image   1
     Message from routine setup:
     using ibrav=0 with symmetry is DISCOURAGED, use correct ibrav instead
     tcpu = 122721.7    self-consistency for image   2
     Message from routine setup:
     using ibrav=0 with symmetry is DISCOURAGED, use correct ibrav instead
     tcpu = 122759.6    self-consistency for image   3
     Message from routine setup:
     using ibrav=0 with symmetry is DISCOURAGED, use correct ibrav instead
     tcpu = 122797.4    self-consistency for image   4
     Message from routine setup:
     using ibrav=0 with symmetry is DISCOURAGED, use correct ibrav instead
     tcpu = 122838.3    self-consistency for image   5
     Message from routine setup:
     using ibrav=0 with symmetry is DISCOURAGED, use correct ibrav instead
     tcpu = 122888.9    self-consistency for image   6
     Message from routine setup:
     using ibrav=0 with symmetry is DISCOURAGED, use correct ibrav instead
     tcpu = 122935.3    self-consistency for image   7
     Message from routine setup:
     using ibrav=0 with symmetry is DISCOURAGED, use correct ibrav instead
     tcpu = 122980.4    self-consistency for image   8
     Message from routine setup:
     using ibrav=0 with symmetry is DISCOURAGED, use correct ibrav instead
     tcpu = 123021.8    self-consistency for image   9
     Message from routine setup:
     using ibrav=0 with symmetry is DISCOURAGED, use correct ibrav instead
     tcpu = 123042.2    self-consistency for image  10
     Message from routine setup:
     using ibrav=0 with symmetry is DISCOURAGED, use correct ibrav instead

     activation energy (->) =   7.539891 eV
     activation energy (<-) =   8.590987 eV

     image        energy (eV)        error (eV/A)        frozen

         1    -133597.4868663            0.219694            F
         2    -133597.8557434            0.205528            F
         3    -133598.1508023            1.967880            F
         4    -133595.8490840            3.045543            F
         5    -133592.5890155            3.215871            F
         6    -133589.9469758            2.446302            F
         7    -133596.3285705            3.059100            F
         8    -133597.5253357            1.228415            F
         9    -133598.1128988            0.146377            F
        10    -133598.5379624            0.084372            F

     path length          = 34.895 bohr
     inter-image distance =  3.877 bohr

     ------------------------------ iteration 364 ------------------------------

     tcpu = 123063.1    self-consistency for image   1
     Message from routine setup:
     using ibrav=0 with symmetry is DISCOURAGED, use correct ibrav instead
     tcpu = 123089.1    self-consistency for image   2
     Message from routine setup:
     using ibrav=0 with symmetry is DISCOURAGED, use correct ibrav instead
     tcpu = 123118.3    self-consistency for image   3
     Message from routine setup:
     using ibrav=0 with symmetry is DISCOURAGED, use correct ibrav instead
     tcpu = 123153.7    self-consistency for image   4
     Message from routine setup:
     using ibrav=0 with symmetry is DISCOURAGED, use correct ibrav instead
     tcpu = 123193.0    self-consistency for image   5
     Message from routine setup:
     using ibrav=0 with symmetry is DISCOURAGED, use correct ibrav instead
     tcpu = 123238.4    self-consistency for image   6
     Message from routine setup:
     using ibrav=0 with symmetry is DISCOURAGED, use correct ibrav instead
     tcpu = 123281.8    self-consistency for image   7
     Message from routine setup:
     using ibrav=0 with symmetry is DISCOURAGED, use correct ibrav instead
     tcpu = 123321.6    self-consistency for image   8
     Message from routine setup:
     using ibrav=0 with symmetry is DISCOURAGED, use correct ibrav instead
     tcpu = 123355.3    self-consistency for image   9
     Message from routine setup:
     using ibrav=0 with symmetry is DISCOURAGED, use correct ibrav instead
     tcpu = 123372.6    self-consistency for image  10
     Message from routine setup:
     using ibrav=0 with symmetry is DISCOURAGED, use correct ibrav instead

     activation energy (->) =   7.542451 eV
     activation energy (<-) =   8.593137 eV

     image        energy (eV)        error (eV/A)        frozen

         1    -133597.4874019            0.220925            F
         2    -133597.8563563            0.202689            F
         3    -133598.1513610            1.964504            F
         4    -133595.8523205            3.048164            F
         5    -133592.5809762            3.215986            F
         6    -133589.9449506            2.459744            F
         7    -133596.3265232            3.054106            F
         8    -133597.5243391            1.230724            F
         9    -133598.1131169            0.158134            F
        10    -133598.5380874            0.084427            F

     path length          = 34.909 bohr
     inter-image distance =  3.879 bohr

     ------------------------------ iteration 365 ------------------------------

     tcpu = 123392.2    self-consistency for image   1
     Message from routine setup:
     using ibrav=0 with symmetry is DISCOURAGED, use correct ibrav instead
     tcpu = 123412.1    self-consistency for image   2
     Message from routine setup:
     using ibrav=0 with symmetry is DISCOURAGED, use correct ibrav instead
     tcpu = 123434.1    self-consistency for image   3
     Message from routine setup:
     using ibrav=0 with symmetry is DISCOURAGED, use correct ibrav instead
     tcpu = 123462.4    self-consistency for image   4
     Message from routine setup:
     using ibrav=0 with symmetry is DISCOURAGED, use correct ibrav instead
     tcpu = 123493.6    self-consistency for image   5
     Message from routine setup:
     using ibrav=0 with symmetry is DISCOURAGED, use correct ibrav instead
     tcpu = 123534.3    self-consistency for image   6
     Message from routine setup:
     using ibrav=0 with symmetry is DISCOURAGED, use correct ibrav instead
     tcpu = 123577.0    self-consistency for image   7
     Message from routine setup:
     using ibrav=0 with symmetry is DISCOURAGED, use correct ibrav instead
     tcpu = 123610.1    self-consistency for image   8
     Message from routine setup:
     using ibrav=0 with symmetry is DISCOURAGED, use correct ibrav instead
     tcpu = 123632.6    self-consistency for image   9
     Message from routine setup:
     using ibrav=0 with symmetry is DISCOURAGED, use correct ibrav instead
     tcpu = 123650.0    self-consistency for image  10
     Message from routine setup:
     using ibrav=0 with symmetry is DISCOURAGED, use correct ibrav instead

     activation energy (->) =   7.543661 eV
     activation energy (<-) =   8.594143 eV

     image        energy (eV)        error (eV/A)        frozen

         1    -133597.4876485            0.208420            F
         2    -133597.8566317            0.196081            F
         3    -133598.1516052            1.965475            F
         4    -133595.8537242            3.049402            F
         5    -133592.5773087            3.217063            F
         6    -133589.9439876            2.464577            F
         7    -133596.3255939            3.052282            F
         8    -133597.5238759            1.230521            F
         9    -133598.1132130            0.162114            F
        10    -133598.5381309            0.084917            F

     path length          = 34.915 bohr
     inter-image distance =  3.879 bohr

     ------------------------------ iteration 366 ------------------------------

     tcpu = 123665.0    self-consistency for image   1
     Message from routine setup:
     using ibrav=0 with symmetry is DISCOURAGED, use correct ibrav instead
     tcpu = 123688.3    self-consistency for image   2
     Message from routine setup:
     using ibrav=0 with symmetry is DISCOURAGED, use correct ibrav instead
     tcpu = 123708.9    self-consistency for image   3
     Message from routine setup:
     using ibrav=0 with symmetry is DISCOURAGED, use correct ibrav instead
     tcpu = 123738.3    self-consistency for image   4
     Message from routine setup:
     using ibrav=0 with symmetry is DISCOURAGED, use correct ibrav instead
     tcpu = 123775.7    self-consistency for image   5
     Message from routine setup:
     using ibrav=0 with symmetry is DISCOURAGED, use correct ibrav instead
     tcpu = 123818.0    self-consistency for image   6
     Message from routine setup:
     using ibrav=0 with symmetry is DISCOURAGED, use correct ibrav instead
     tcpu = 123856.3    self-consistency for image   7
     Message from routine setup:
     using ibrav=0 with symmetry is DISCOURAGED, use correct ibrav instead
     tcpu = 123892.5    self-consistency for image   8
     Message from routine setup:
     using ibrav=0 with symmetry is DISCOURAGED, use correct ibrav instead
     tcpu = 123914.3    self-consistency for image   9
     Message from routine setup:
     using ibrav=0 with symmetry is DISCOURAGED, use correct ibrav instead
     tcpu = 123930.1    self-consistency for image  10
     Message from routine setup:
     using ibrav=0 with symmetry is DISCOURAGED, use correct ibrav instead

     activation energy (->) =   7.545046 eV
     activation energy (<-) =   8.595324 eV

     image        energy (eV)        error (eV/A)        frozen

         1    -133597.4879138            0.218890            F
         2    -133597.8569160            0.191652            F
         3    -133598.1519039            1.962622            F
         4    -133595.8552266            3.047108            F
         5    -133592.5732669            3.214760            F
         6    -133589.9428676            2.472873            F
         7    -133596.3245798            3.051080            F
         8    -133597.5233401            1.227936            F
         9    -133598.1133139            0.160526            F
        10    -133598.5381911            0.083305            F

     path length          = 34.922 bohr
     inter-image distance =  3.880 bohr

     ------------------------------ iteration 367 ------------------------------

     tcpu = 123948.9    self-consistency for image   1
     Message from routine setup:
     using ibrav=0 with symmetry is DISCOURAGED, use correct ibrav instead
     tcpu = 123972.0    self-consistency for image   2
     Message from routine setup:
     using ibrav=0 with symmetry is DISCOURAGED, use correct ibrav instead
     tcpu = 123995.6    self-consistency for image   3
     Message from routine setup:
     using ibrav=0 with symmetry is DISCOURAGED, use correct ibrav instead
     tcpu = 124028.2    self-consistency for image   4
     Message from routine setup:
     using ibrav=0 with symmetry is DISCOURAGED, use correct ibrav instead
     tcpu = 124063.8    self-consistency for image   5
     Message from routine setup:
     using ibrav=0 with symmetry is DISCOURAGED, use correct ibrav instead
     tcpu = 124106.0    self-consistency for image   6
     Message from routine setup:
     using ibrav=0 with symmetry is DISCOURAGED, use correct ibrav instead
     tcpu = 124149.8    self-consistency for image   7
     Message from routine setup:
     using ibrav=0 with symmetry is DISCOURAGED, use correct ibrav instead
     tcpu = 124186.3    self-consistency for image   8
     Message from routine setup:
     using ibrav=0 with symmetry is DISCOURAGED, use correct ibrav instead
     tcpu = 124218.9    self-consistency for image   9
     Message from routine setup:
     using ibrav=0 with symmetry is DISCOURAGED, use correct ibrav instead
     tcpu = 124234.7    self-consistency for image  10
     Message from routine setup:
     using ibrav=0 with symmetry is DISCOURAGED, use correct ibrav instead

     activation energy (->) =   7.546903 eV
     activation energy (<-) =   8.596903 eV

     image        energy (eV)        error (eV/A)        frozen

         1    -133597.4882604            0.218602            F
         2    -133597.8573304            0.203547            F
         3    -133598.1522909            1.961104            F
         4    -133595.8571135            3.047179            F
         5    -133592.5679835            3.216871            F
         6    -133589.9413572            2.482144            F
         7    -133596.3232588            3.048702            F
         8    -133597.5227075            1.232713            F
         9    -133598.1134457            0.159753            F
        10    -133598.5382605            0.083528            F

     path length          = 34.931 bohr
     inter-image distance =  3.881 bohr

     ------------------------------ iteration 368 ------------------------------

     tcpu = 124251.8    self-consistency for image   1
     Message from routine setup:
     using ibrav=0 with symmetry is DISCOURAGED, use correct ibrav instead
     tcpu = 124279.6    self-consistency for image   2
     Message from routine setup:
     using ibrav=0 with symmetry is DISCOURAGED, use correct ibrav instead
     tcpu = 124311.0    self-consistency for image   3
     Message from routine setup:
     using ibrav=0 with symmetry is DISCOURAGED, use correct ibrav instead
     tcpu = 124349.8    self-consistency for image   4
     Message from routine setup:
     using ibrav=0 with symmetry is DISCOURAGED, use correct ibrav instead
     tcpu = 124386.8    self-consistency for image   5
     Message from routine setup:
     using ibrav=0 with symmetry is DISCOURAGED, use correct ibrav instead
     tcpu = 124436.8    self-consistency for image   6
     Message from routine setup:
     using ibrav=0 with symmetry is DISCOURAGED, use correct ibrav instead
