
     Program NEB v.7.2 starts on  6Nov2024 at 21:54:54 

     This program is part of the open-source Quantum ESPRESSO suite
     for quantum simulation of materials; please cite
         "P. Giannozzi et al., J. Phys.:Condens. Matter 21 395502 (2009);
         "P. Giannozzi et al., J. Phys.:Condens. Matter 29 465901 (2017);
         "P. Giannozzi et al., J. Chem. Phys. 152 154105 (2020);
          URL http://www.quantum-espresso.org", 
     in publications or presentations arising from this work. More details at
     http://www.quantum-espresso.org/quote

     Parallel version (MPI), running on    96 processors

     MPI processes distributed on     2 nodes
     136498 MiB available memory on the printing compute node when the environment starts
 

     Parsing file: neb.in
     Reading input from pw_1.in
Warning: card &CELL ignored
Warning: card   CELL_DYNAMICS='BFGS', ignored
Warning: card   PRESS=0.0, ignored
Warning: card   PRESS_CONV_THR=0.5, ignored
Warning: card / ignored
     Reading input from pw_2.in
Warning: card &CELL ignored
Warning: card   CELL_DYNAMICS='BFGS', ignored
Warning: card   PRESS=0.0, ignored
Warning: card   PRESS_CONV_THR=0.5, ignored
Warning: card / ignored

     File ./out/sb2te3_1/sb2te3.update deleted, as requested

     File ./out/sb2te3_1/PW.out deleted, as requested

     initial path length           =  7.8843 bohr
     initial inter-image distance  =  1.9711 bohr
 
     string_method                 =    neb
     restart_mode                  =    from_scratch
     opt_scheme                    =    broyden
     num_of_images                 =    5
     nstep_path                    =    1000
     CI_scheme                     =    no-CI
     first_last_opt                =    T
     use_freezing                  =    F
     ds                            =    0.0756 a.u.
     k_max                         =    0.0131 a.u.
     k_min                         =    0.0050 a.u.
     suggested k_max               =  107.9285 a.u.
     suggested k_min               =   41.1941 a.u.
     path_thr                      =    0.0010 eV / A

     ------------------------------ iteration   1 ------------------------------

     tcpu =      0.3    self-consistency for image   1
     Message from routine setup:
     using ibrav=0 with symmetry is DISCOURAGED, use correct ibrav instead
     tcpu =     48.1    self-consistency for image   2
     Message from routine setup:
     using ibrav=0 with symmetry is DISCOURAGED, use correct ibrav instead
     tcpu =     96.4    self-consistency for image   3
     Message from routine setup:
     using ibrav=0 with symmetry is DISCOURAGED, use correct ibrav instead
     tcpu =    141.0    self-consistency for image   4
     Message from routine setup:
     using ibrav=0 with symmetry is DISCOURAGED, use correct ibrav instead
     tcpu =    192.4    self-consistency for image   5
     Message from routine setup:
     using ibrav=0 with symmetry is DISCOURAGED, use correct ibrav instead

     activation energy (->) =  66.760904 eV
     activation energy (<-) =  64.824587 eV

     image        energy (eV)        error (eV/A)        frozen

         1    -133596.3164592            0.688936            F
         2    -133595.4199868            6.008038            F
         3    -133585.9875269           40.863874            F
         4    -133529.5555551          445.483979            F
         5    -133594.3801420            3.547139            F

     path length          =  7.884 bohr
     inter-image distance =  1.971 bohr

     ------------------------------ iteration   2 ------------------------------

     tcpu =    241.7    self-consistency for image   1
     Message from routine setup:
     using ibrav=0 with symmetry is DISCOURAGED, use correct ibrav instead
     tcpu =    258.5    self-consistency for image   2
     Message from routine setup:
     using ibrav=0 with symmetry is DISCOURAGED, use correct ibrav instead
     tcpu =    275.9    self-consistency for image   3
     Message from routine setup:
     using ibrav=0 with symmetry is DISCOURAGED, use correct ibrav instead
     tcpu =    301.8    self-consistency for image   4
     Message from routine setup:
     using ibrav=0 with symmetry is DISCOURAGED, use correct ibrav instead
     tcpu =    351.1    self-consistency for image   5
     Message from routine setup:
     using ibrav=0 with symmetry is DISCOURAGED, use correct ibrav instead

     activation energy (->) =  44.050794 eV
     activation energy (<-) =  42.115867 eV

     image        energy (eV)        error (eV/A)        frozen

         1    -133596.3170933            0.684767            F
         2    -133595.4243104            5.992899            F
         3    -133586.1688678           40.069453            F
         4    -133552.2662998          299.533593            F
         5    -133594.3821672            3.351445            F

     path length          =  7.888 bohr
     inter-image distance =  1.972 bohr

     ------------------------------ iteration   3 ------------------------------

     tcpu =    373.7    self-consistency for image   1
     Message from routine setup:
     using ibrav=0 with symmetry is DISCOURAGED, use correct ibrav instead
     tcpu =    391.4    self-consistency for image   2
     Message from routine setup:
     using ibrav=0 with symmetry is DISCOURAGED, use correct ibrav instead
     tcpu =    416.8    self-consistency for image   3
     Message from routine setup:
     using ibrav=0 with symmetry is DISCOURAGED, use correct ibrav instead
     tcpu =    450.7    self-consistency for image   4
     Message from routine setup:
     using ibrav=0 with symmetry is DISCOURAGED, use correct ibrav instead
     tcpu =    513.2    self-consistency for image   5
     Message from routine setup:
     using ibrav=0 with symmetry is DISCOURAGED, use correct ibrav instead

     activation energy (->) =  15.681708 eV
     activation energy (<-) =  13.750274 eV

     image        energy (eV)        error (eV/A)        frozen

         1    -133596.3189813            0.668637            F
         2    -133595.4372461            5.961177            F
         3    -133586.7060563           37.886332            F
         4    -133580.6372729          142.440753            F
         5    -133594.3875471            2.771885            F

     path length          =  7.914 bohr
     inter-image distance =  1.978 bohr

     ------------------------------ iteration   4 ------------------------------

     tcpu =    535.7    self-consistency for image   1
     Message from routine setup:
     using ibrav=0 with symmetry is DISCOURAGED, use correct ibrav instead
     tcpu =    553.4    self-consistency for image   2
     Message from routine setup:
     using ibrav=0 with symmetry is DISCOURAGED, use correct ibrav instead
     tcpu =    578.2    self-consistency for image   3
     Message from routine setup:
     using ibrav=0 with symmetry is DISCOURAGED, use correct ibrav instead
     tcpu =    609.7    self-consistency for image   4
     Message from routine setup:
     using ibrav=0 with symmetry is DISCOURAGED, use correct ibrav instead
     tcpu =    666.3    self-consistency for image   5
     Message from routine setup:
     using ibrav=0 with symmetry is DISCOURAGED, use correct ibrav instead

     activation energy (->) =   8.986452 eV
     activation energy (<-) =   7.058176 eV

     image        energy (eV)        error (eV/A)        frozen

         1    -133596.3212303            0.663393            F
         2    -133595.4526990            5.918299            F
         3    -133587.3347788           35.433517            F
         4    -133587.4291573           15.056233            F
         5    -133594.3929551            2.194910            F

     path length          =  7.959 bohr
     inter-image distance =  1.990 bohr

     ------------------------------ iteration   5 ------------------------------

     tcpu =    693.9    self-consistency for image   1
     Message from routine setup:
     using ibrav=0 with symmetry is DISCOURAGED, use correct ibrav instead
     tcpu =    711.9    self-consistency for image   2
     Message from routine setup:
     using ibrav=0 with symmetry is DISCOURAGED, use correct ibrav instead
     tcpu =    728.6    self-consistency for image   3
     Message from routine setup:
     using ibrav=0 with symmetry is DISCOURAGED, use correct ibrav instead
     tcpu =    753.4    self-consistency for image   4
     Message from routine setup:
     using ibrav=0 with symmetry is DISCOURAGED, use correct ibrav instead
     tcpu =    789.8    self-consistency for image   5
     Message from routine setup:
     using ibrav=0 with symmetry is DISCOURAGED, use correct ibrav instead

     activation energy (->) =   8.824742 eV
     activation energy (<-) =   6.897156 eV

     image        energy (eV)        error (eV/A)        frozen

         1    -133596.3220109            0.678571            F
         2    -133595.4578640            5.897277            F
         3    -133587.5385432           34.886347            F
         4    -133587.4972685           15.110492            F
         5    -133594.3944250            2.033204            F

     path length          =  7.963 bohr
     inter-image distance =  1.991 bohr

     ------------------------------ iteration   6 ------------------------------

     tcpu =    807.5    self-consistency for image   1
     Message from routine setup:
     using ibrav=0 with symmetry is DISCOURAGED, use correct ibrav instead
     tcpu =    824.0    self-consistency for image   2
     Message from routine setup:
     using ibrav=0 with symmetry is DISCOURAGED, use correct ibrav instead
     tcpu =    849.4    self-consistency for image   3
     Message from routine setup:
     using ibrav=0 with symmetry is DISCOURAGED, use correct ibrav instead
     tcpu =    879.0    self-consistency for image   4
     Message from routine setup:
     using ibrav=0 with symmetry is DISCOURAGED, use correct ibrav instead
     tcpu =    928.9    self-consistency for image   5
     Message from routine setup:
     using ibrav=0 with symmetry is DISCOURAGED, use correct ibrav instead

     activation energy (->) =   8.703947 eV
     activation energy (<-) =   6.778099 eV

     image        energy (eV)        error (eV/A)        frozen

         1    -133596.3243575            0.661743            F
         2    -133595.4736528            5.855136            F
         3    -133588.1467536           33.393195            F
         4    -133587.6204103           15.048164            F
         5    -133594.3985096            1.647663            F

     path length          =  7.973 bohr
     inter-image distance =  1.993 bohr

     ------------------------------ iteration   7 ------------------------------

     tcpu =    953.6    self-consistency for image   1
     Message from routine setup:
     using ibrav=0 with symmetry is DISCOURAGED, use correct ibrav instead
     tcpu =    975.4    self-consistency for image   2
     Message from routine setup:
     using ibrav=0 with symmetry is DISCOURAGED, use correct ibrav instead
     tcpu =   1001.1    self-consistency for image   3
     Message from routine setup:
     using ibrav=0 with symmetry is DISCOURAGED, use correct ibrav instead
     tcpu =   1036.3    self-consistency for image   4
     Message from routine setup:
     using ibrav=0 with symmetry is DISCOURAGED, use correct ibrav instead
     tcpu =   1080.8    self-consistency for image   5
     Message from routine setup:
     using ibrav=0 with symmetry is DISCOURAGED, use correct ibrav instead

     activation energy (->) =   8.562165 eV
     activation energy (<-) =   6.638033 eV

     image        energy (eV)        error (eV/A)        frozen

         1    -133596.3275855            0.681893            F
         2    -133595.4950327            5.789282            F
         3    -133588.9346247           31.196850            F
         4    -133587.7654203           15.639596            F
         5    -133594.4034535            1.167650            F

     path length          =  7.984 bohr
     inter-image distance =  1.996 bohr

     ------------------------------ iteration   8 ------------------------------

     tcpu =   1105.2    self-consistency for image   1
     Message from routine setup:
     using ibrav=0 with symmetry is DISCOURAGED, use correct ibrav instead
     tcpu =   1137.8    self-consistency for image   2
     Message from routine setup:
     using ibrav=0 with symmetry is DISCOURAGED, use correct ibrav instead
     tcpu =   1176.1    self-consistency for image   3
     Message from routine setup:
     using ibrav=0 with symmetry is DISCOURAGED, use correct ibrav instead
     tcpu =   1222.2    self-consistency for image   4
     Message from routine setup:
     using ibrav=0 with symmetry is DISCOURAGED, use correct ibrav instead
     tcpu =   1280.9    self-consistency for image   5
     Message from routine setup:
     using ibrav=0 with symmetry is DISCOURAGED, use correct ibrav instead

     activation energy (->) =   8.012011 eV
     activation energy (<-) =   6.087919 eV

     image        energy (eV)        error (eV/A)        frozen

         1    -133596.3489558            0.670078            F
         2    -133595.6315701            5.336375            F
         3    -133591.9094589           22.804482            F
         4    -133588.3369450           25.489409            F
         5    -133594.4248644            2.417660            F

     path length          =  8.078 bohr
     inter-image distance =  2.020 bohr

     ------------------------------ iteration   9 ------------------------------

     tcpu =   1323.9    self-consistency for image   1
     Message from routine setup:
     using ibrav=0 with symmetry is DISCOURAGED, use correct ibrav instead
     tcpu =   1349.0    self-consistency for image   2
     Message from routine setup:
     using ibrav=0 with symmetry is DISCOURAGED, use correct ibrav instead
     tcpu =   1382.6    self-consistency for image   3
     Message from routine setup:
     using ibrav=0 with symmetry is DISCOURAGED, use correct ibrav instead
     tcpu =   1423.2    self-consistency for image   4
     Message from routine setup:
     using ibrav=0 with symmetry is DISCOURAGED, use correct ibrav instead
     tcpu =   1476.2    self-consistency for image   5
     Message from routine setup:
     using ibrav=0 with symmetry is DISCOURAGED, use correct ibrav instead

     activation energy (->) =   8.043652 eV
     activation energy (<-) =   6.121750 eV

     image        energy (eV)        error (eV/A)        frozen

         1    -133596.3432444            0.673683            F
         2    -133595.5958195            5.457549            F
         3    -133591.6736678           14.968853            F
         4    -133588.2995927           22.772423            F
         5    -133594.4213429            1.544834            F

     path length          =  8.044 bohr
     inter-image distance =  2.011 bohr

     ------------------------------ iteration  10 ------------------------------

     tcpu =   1509.6    self-consistency for image   1
     Message from routine setup:
     using ibrav=0 with symmetry is DISCOURAGED, use correct ibrav instead
     tcpu =   1527.5    self-consistency for image   2
     Message from routine setup:
     using ibrav=0 with symmetry is DISCOURAGED, use correct ibrav instead
     tcpu =   1552.7    self-consistency for image   3
     Message from routine setup:
     using ibrav=0 with symmetry is DISCOURAGED, use correct ibrav instead
     tcpu =   1584.5    self-consistency for image   4
     Message from routine setup:
     using ibrav=0 with symmetry is DISCOURAGED, use correct ibrav instead
     tcpu =   1625.1    self-consistency for image   5
     Message from routine setup:
     using ibrav=0 with symmetry is DISCOURAGED, use correct ibrav instead

     activation energy (->) =   7.961724 eV
     activation energy (<-) =   6.039838 eV

     image        energy (eV)        error (eV/A)        frozen

         1    -133596.3451351            0.653388            F
         2    -133595.6077067            5.418074            F
         3    -133591.8176986           14.393170            F
         4    -133588.3834116           22.729922            F
         5    -133594.4232495            1.690127            F

     path length          =  8.051 bohr
     inter-image distance =  2.013 bohr

     ------------------------------ iteration  11 ------------------------------

     tcpu =   1645.8    self-consistency for image   1
     Message from routine setup:
     using ibrav=0 with symmetry is DISCOURAGED, use correct ibrav instead
     tcpu =   1663.3    self-consistency for image   2
     Message from routine setup:
     using ibrav=0 with symmetry is DISCOURAGED, use correct ibrav instead
     tcpu =   1685.6    self-consistency for image   3
     Message from routine setup:
     using ibrav=0 with symmetry is DISCOURAGED, use correct ibrav instead
     tcpu =   1713.0    self-consistency for image   4
     Message from routine setup:
     using ibrav=0 with symmetry is DISCOURAGED, use correct ibrav instead
     tcpu =   1749.1    self-consistency for image   5
     Message from routine setup:
     using ibrav=0 with symmetry is DISCOURAGED, use correct ibrav instead

     activation energy (->) =   7.831845 eV
     activation energy (<-) =   5.910358 eV

     image        energy (eV)        error (eV/A)        frozen

         1    -133596.3471678            0.651125            F
         2    -133595.6204455            5.373582            F
         3    -133591.9235017           13.897525            F
         4    -133588.5153226           21.858988            F
         5    -133594.4256802            1.677711            F

     path length          =  8.054 bohr
     inter-image distance =  2.013 bohr

     ------------------------------ iteration  12 ------------------------------

     tcpu =   1766.0    self-consistency for image   1
     Message from routine setup:
     using ibrav=0 with symmetry is DISCOURAGED, use correct ibrav instead
     tcpu =   1784.2    self-consistency for image   2
     Message from routine setup:
     using ibrav=0 with symmetry is DISCOURAGED, use correct ibrav instead
     tcpu =   1801.8    self-consistency for image   3
     Message from routine setup:
     using ibrav=0 with symmetry is DISCOURAGED, use correct ibrav instead
     tcpu =   1826.5    self-consistency for image   4
     Message from routine setup:
     using ibrav=0 with symmetry is DISCOURAGED, use correct ibrav instead
     tcpu =   1859.1    self-consistency for image   5
     Message from routine setup:
     using ibrav=0 with symmetry is DISCOURAGED, use correct ibrav instead

     activation energy (->) =   7.739863 eV
     activation energy (<-) =   5.818843 eV

     image        energy (eV)        error (eV/A)        frozen

         1    -133596.3481584            0.662236            F
         2    -133595.6264421            5.344803            F
         3    -133591.9608205           13.765658            F
         4    -133588.6082957           20.764609            F
         5    -133594.4271389            1.578052            F

     path length          =  8.052 bohr
     inter-image distance =  2.013 bohr

     ------------------------------ iteration  13 ------------------------------

     tcpu =   1880.0    self-consistency for image   1
     Message from routine setup:
     using ibrav=0 with symmetry is DISCOURAGED, use correct ibrav instead
     tcpu =   1896.6    self-consistency for image   2
     Message from routine setup:
     using ibrav=0 with symmetry is DISCOURAGED, use correct ibrav instead
     tcpu =   1915.8    self-consistency for image   3
     Message from routine setup:
     using ibrav=0 with symmetry is DISCOURAGED, use correct ibrav instead
     tcpu =   1944.4    self-consistency for image   4
     Message from routine setup:
     using ibrav=0 with symmetry is DISCOURAGED, use correct ibrav instead
     tcpu =   1978.9    self-consistency for image   5
     Message from routine setup:
     using ibrav=0 with symmetry is DISCOURAGED, use correct ibrav instead

     activation energy (->) =   7.649723 eV
     activation energy (<-) =   5.729171 eV

     image        energy (eV)        error (eV/A)        frozen

         1    -133596.3492260            0.661659            F
         2    -133595.6329710            5.320130            F
         3    -133592.0017746           13.612237            F
         4    -133588.6995028           19.618821            F
         5    -133594.4286738            1.479530            F

     path length          =  8.051 bohr
     inter-image distance =  2.013 bohr

     ------------------------------ iteration  14 ------------------------------

     tcpu =   1995.2    self-consistency for image   1
     Message from routine setup:
     using ibrav=0 with symmetry is DISCOURAGED, use correct ibrav instead
     tcpu =   2012.8    self-consistency for image   2
     Message from routine setup:
     using ibrav=0 with symmetry is DISCOURAGED, use correct ibrav instead
     tcpu =   2038.6    self-consistency for image   3
     Message from routine setup:
     using ibrav=0 with symmetry is DISCOURAGED, use correct ibrav instead
     tcpu =   2071.2    self-consistency for image   4
     Message from routine setup:
     using ibrav=0 with symmetry is DISCOURAGED, use correct ibrav instead
     tcpu =   2113.9    self-consistency for image   5
     Message from routine setup:
     using ibrav=0 with symmetry is DISCOURAGED, use correct ibrav instead

     activation energy (->) =   7.468679 eV
     activation energy (<-) =   5.549058 eV

     image        energy (eV)        error (eV/A)        frozen

         1    -133596.3515788            0.645122            F
         2    -133595.6474021            5.276359            F
         3    -133592.0913911           13.269264            F
         4    -133588.8829001           16.969887            F
         5    -133594.4319584            1.278941            F

     path length          =  8.049 bohr
     inter-image distance =  2.012 bohr

     ------------------------------ iteration  15 ------------------------------

     tcpu =   2131.7    self-consistency for image   1
     Message from routine setup:
     using ibrav=0 with symmetry is DISCOURAGED, use correct ibrav instead
     tcpu =   2152.9    self-consistency for image   2
     Message from routine setup:
     using ibrav=0 with symmetry is DISCOURAGED, use correct ibrav instead
     tcpu =   2182.8    self-consistency for image   3
     Message from routine setup:
     using ibrav=0 with symmetry is DISCOURAGED, use correct ibrav instead
     tcpu =   2214.7    self-consistency for image   4
     Message from routine setup:
     using ibrav=0 with symmetry is DISCOURAGED, use correct ibrav instead
     tcpu =   2254.8    self-consistency for image   5
     Message from routine setup:
     using ibrav=0 with symmetry is DISCOURAGED, use correct ibrav instead

     activation energy (->) =   7.172650 eV
     activation energy (<-) =   5.254574 eV

     image        energy (eV)        error (eV/A)        frozen

         1    -133596.3563534            0.665579            F
         2    -133595.6761053            5.172309            F
         3    -133592.2640327           12.620235            F
         4    -133589.1837032           11.396476            F
         5    -133594.4382769            0.864302            F

     path length          =  8.045 bohr
     inter-image distance =  2.011 bohr

     ------------------------------ iteration  16 ------------------------------

     tcpu =   2275.6    self-consistency for image   1
     Message from routine setup:
     using ibrav=0 with symmetry is DISCOURAGED, use correct ibrav instead
     tcpu =   2300.9    self-consistency for image   2
     Message from routine setup:
     using ibrav=0 with symmetry is DISCOURAGED, use correct ibrav instead
     tcpu =   2331.0    self-consistency for image   3
     Message from routine setup:
     using ibrav=0 with symmetry is DISCOURAGED, use correct ibrav instead
     tcpu =   2368.3    self-consistency for image   4
     Message from routine setup:
     using ibrav=0 with symmetry is DISCOURAGED, use correct ibrav instead
     tcpu =   2413.4    self-consistency for image   5
     Message from routine setup:
     using ibrav=0 with symmetry is DISCOURAGED, use correct ibrav instead

     activation energy (->) =   6.916173 eV
     activation energy (<-) =   4.999923 eV

     image        energy (eV)        error (eV/A)        frozen

         1    -133596.3649673            0.661423            F
         2    -133595.7268445            4.986595            F
         3    -133592.5552976           11.516448            F
         4    -133589.4487943           16.926044            F
         5    -133594.4487175            0.726762            F

     path length          =  8.039 bohr
     inter-image distance =  2.010 bohr

     ------------------------------ iteration  17 ------------------------------

     tcpu =   2442.2    self-consistency for image   1
     Message from routine setup:
     using ibrav=0 with symmetry is DISCOURAGED, use correct ibrav instead
     tcpu =   2470.4    self-consistency for image   2
     Message from routine setup:
     using ibrav=0 with symmetry is DISCOURAGED, use correct ibrav instead
     tcpu =   2515.1    self-consistency for image   3
     Message from routine setup:
     using ibrav=0 with symmetry is DISCOURAGED, use correct ibrav instead
     tcpu =   2555.8    self-consistency for image   4
     Message from routine setup:
     using ibrav=0 with symmetry is DISCOURAGED, use correct ibrav instead
     tcpu =   2605.4    self-consistency for image   5
     Message from routine setup:
     using ibrav=0 with symmetry is DISCOURAGED, use correct ibrav instead

     activation energy (->) =   7.370304 eV
     activation energy (<-) =   5.454650 eV

     image        energy (eV)        error (eV/A)        frozen

         1    -133596.3809364            0.652538            F
         2    -133595.8172930            4.652400            F
         3    -133593.0362860           11.392850            F
         4    -133589.0106325           49.077829            F
         5    -133594.4652827            1.899262            F

     path length          =  8.036 bohr
     inter-image distance =  2.009 bohr

     ------------------------------ iteration  18 ------------------------------

     tcpu =   2642.5    self-consistency for image   1
     Message from routine setup:
     using ibrav=0 with symmetry is DISCOURAGED, use correct ibrav instead
     tcpu =   2665.2    self-consistency for image   2
     Message from routine setup:
     using ibrav=0 with symmetry is DISCOURAGED, use correct ibrav instead
     tcpu =   2692.7    self-consistency for image   3
     Message from routine setup:
     using ibrav=0 with symmetry is DISCOURAGED, use correct ibrav instead
     tcpu =   2726.6    self-consistency for image   4
     Message from routine setup:
     using ibrav=0 with symmetry is DISCOURAGED, use correct ibrav instead
     tcpu =   2769.3    self-consistency for image   5
     Message from routine setup:
     using ibrav=0 with symmetry is DISCOURAGED, use correct ibrav instead

     activation energy (->) =   6.938489 eV
     activation energy (<-) =   5.023316 eV

     image        energy (eV)        error (eV/A)        frozen

         1    -133596.3768151            0.656052            F
         2    -133595.7941356            4.739118            F
         3    -133592.9179386           10.804781            F
         4    -133589.4383257           33.907243            F
         5    -133594.4616413            1.455720            F

     path length          =  8.039 bohr
     inter-image distance =  2.010 bohr

     ------------------------------ iteration  19 ------------------------------

     tcpu =   2798.2    self-consistency for image   1
     Message from routine setup:
     using ibrav=0 with symmetry is DISCOURAGED, use correct ibrav instead
     tcpu =   2816.4    self-consistency for image   2
     Message from routine setup:
     using ibrav=0 with symmetry is DISCOURAGED, use correct ibrav instead
     tcpu =   2832.6    self-consistency for image   3
     Message from routine setup:
     using ibrav=0 with symmetry is DISCOURAGED, use correct ibrav instead
     tcpu =   2853.3    self-consistency for image   4
     Message from routine setup:
     using ibrav=0 with symmetry is DISCOURAGED, use correct ibrav instead
     tcpu =   2886.3    self-consistency for image   5
     Message from routine setup:
     using ibrav=0 with symmetry is DISCOURAGED, use correct ibrav instead

     activation energy (->) =   6.803220 eV
     activation energy (<-) =   4.888322 eV

     image        energy (eV)        error (eV/A)        frozen

         1    -133596.3771204            0.651001            F
         2    -133595.7955527            4.732684            F
         3    -133592.9253054           10.381735            F
         4    -133589.5739002           29.550365            F
         5    -133594.4622217            1.353121            F

     path length          =  8.041 bohr
     inter-image distance =  2.010 bohr

     ------------------------------ iteration  20 ------------------------------

     tcpu =   2903.2    self-consistency for image   1
     Message from routine setup:
     using ibrav=0 with symmetry is DISCOURAGED, use correct ibrav instead
     tcpu =   2920.1    self-consistency for image   2
     Message from routine setup:
     using ibrav=0 with symmetry is DISCOURAGED, use correct ibrav instead
     tcpu =   2942.6    self-consistency for image   3
     Message from routine setup:
     using ibrav=0 with symmetry is DISCOURAGED, use correct ibrav instead
     tcpu =   2972.0    self-consistency for image   4
     Message from routine setup:
     using ibrav=0 with symmetry is DISCOURAGED, use correct ibrav instead
     tcpu =   3011.1    self-consistency for image   5
     Message from routine setup:
     using ibrav=0 with symmetry is DISCOURAGED, use correct ibrav instead

     activation energy (->) =   6.510980 eV
     activation energy (<-) =   4.596965 eV

     image        energy (eV)        error (eV/A)        frozen

         1    -133596.3792648            0.631853            F
         2    -133595.8067806            4.693125            F
         3    -133592.9810986           10.064242            F
         4    -133589.8682849           19.404611            F
         5    -133594.4652503            1.110659            F

     path length          =  8.050 bohr
     inter-image distance =  2.012 bohr

     ------------------------------ iteration  21 ------------------------------

     tcpu =   3033.1    self-consistency for image   1
     Message from routine setup:
     using ibrav=0 with symmetry is DISCOURAGED, use correct ibrav instead
     tcpu =   3053.8    self-consistency for image   2
     Message from routine setup:
     using ibrav=0 with symmetry is DISCOURAGED, use correct ibrav instead
     tcpu =   3079.4    self-consistency for image   3
     Message from routine setup:
     using ibrav=0 with symmetry is DISCOURAGED, use correct ibrav instead
     tcpu =   3111.7    self-consistency for image   4
     Message from routine setup:
     using ibrav=0 with symmetry is DISCOURAGED, use correct ibrav instead
     tcpu =   3157.4    self-consistency for image   5
     Message from routine setup:
     using ibrav=0 with symmetry is DISCOURAGED, use correct ibrav instead

     activation energy (->) =   6.279161 eV
     activation energy (<-) =   4.366491 eV

     image        energy (eV)        error (eV/A)        frozen

         1    -133596.3832830            0.650382            F
         2    -133595.8275881            4.616602            F
         3    -133593.0757514            9.833252            F
         4    -133590.1041224            9.165228            F
         5    -133594.4706136            0.721932            F

     path length          =  8.064 bohr
     inter-image distance =  2.016 bohr

     ------------------------------ iteration  22 ------------------------------

     tcpu =   3182.5    self-consistency for image   1
     Message from routine setup:
     using ibrav=0 with symmetry is DISCOURAGED, use correct ibrav instead
     tcpu =   3198.2    self-consistency for image   2
     Message from routine setup:
     using ibrav=0 with symmetry is DISCOURAGED, use correct ibrav instead
     tcpu =   3215.6    self-consistency for image   3
     Message from routine setup:
     using ibrav=0 with symmetry is DISCOURAGED, use correct ibrav instead
     tcpu =   3236.9    self-consistency for image   4
     Message from routine setup:
     using ibrav=0 with symmetry is DISCOURAGED, use correct ibrav instead
     tcpu =   3269.9    self-consistency for image   5
     Message from routine setup:
     using ibrav=0 with symmetry is DISCOURAGED, use correct ibrav instead

     activation energy (->) =   6.260472 eV
     activation energy (<-) =   4.347979 eV

     image        energy (eV)        error (eV/A)        frozen

         1    -133596.3840645            0.646487            F
         2    -133595.8315224            4.597481            F
         3    -133593.0922897            9.781296            F
         4    -133590.1235927            9.130498            F
         5    -133594.4715721            0.715385            F

     path length          =  8.065 bohr
     inter-image distance =  2.016 bohr

     ------------------------------ iteration  23 ------------------------------

     tcpu =   3286.1    self-consistency for image   1
     Message from routine setup:
     using ibrav=0 with symmetry is DISCOURAGED, use correct ibrav instead
     tcpu =   3303.1    self-consistency for image   2
     Message from routine setup:
     using ibrav=0 with symmetry is DISCOURAGED, use correct ibrav instead
     tcpu =   3323.3    self-consistency for image   3
     Message from routine setup:
     using ibrav=0 with symmetry is DISCOURAGED, use correct ibrav instead
     tcpu =   3349.5    self-consistency for image   4
     Message from routine setup:
     using ibrav=0 with symmetry is DISCOURAGED, use correct ibrav instead
     tcpu =   3385.8    self-consistency for image   5
     Message from routine setup:
     using ibrav=0 with symmetry is DISCOURAGED, use correct ibrav instead

     activation energy (->) =   6.233743 eV
     activation energy (<-) =   4.321564 eV

     image        energy (eV)        error (eV/A)        frozen

         1    -133596.3853388            0.636809            F
         2    -133595.8380268            4.575136            F
         3    -133593.1195249            9.701459            F
         4    -133590.1515963            9.104951            F
         5    -133594.4731604            0.707262            F

     path length          =  8.068 bohr
     inter-image distance =  2.017 bohr

     ------------------------------ iteration  24 ------------------------------

     tcpu =   3406.3    self-consistency for image   1
     Message from routine setup:
     using ibrav=0 with symmetry is DISCOURAGED, use correct ibrav instead
     tcpu =   3424.1    self-consistency for image   2
     Message from routine setup:
     using ibrav=0 with symmetry is DISCOURAGED, use correct ibrav instead
     tcpu =   3446.0    self-consistency for image   3
     Message from routine setup:
     using ibrav=0 with symmetry is DISCOURAGED, use correct ibrav instead
     tcpu =   3477.9    self-consistency for image   4
     Message from routine setup:
     using ibrav=0 with symmetry is DISCOURAGED, use correct ibrav instead
     tcpu =   3518.6    self-consistency for image   5
     Message from routine setup:
     using ibrav=0 with symmetry is DISCOURAGED, use correct ibrav instead

     activation energy (->) =   6.193697 eV
     activation energy (<-) =   4.282039 eV

     image        energy (eV)        error (eV/A)        frozen

         1    -133596.3875594            0.625306            F
         2    -133595.8493920            4.536049            F
         3    -133593.1660419            9.560489            F
         4    -133590.1938622            9.180883            F
         5    -133594.4759008            0.696961            F

     path length          =  8.072 bohr
     inter-image distance =  2.018 bohr

     ------------------------------ iteration  25 ------------------------------

     tcpu =   3540.3    self-consistency for image   1
     Message from routine setup:
     using ibrav=0 with symmetry is DISCOURAGED, use correct ibrav instead
     tcpu =   3561.3    self-consistency for image   2
     Message from routine setup:
     using ibrav=0 with symmetry is DISCOURAGED, use correct ibrav instead
     tcpu =   3585.6    self-consistency for image   3
     Message from routine setup:
     using ibrav=0 with symmetry is DISCOURAGED, use correct ibrav instead
     tcpu =   3616.0    self-consistency for image   4
     Message from routine setup:
     using ibrav=0 with symmetry is DISCOURAGED, use correct ibrav instead
     tcpu =   3659.8    self-consistency for image   5
     Message from routine setup:
     using ibrav=0 with symmetry is DISCOURAGED, use correct ibrav instead

     activation energy (->) =   6.141436 eV
     activation energy (<-) =   4.230456 eV

     image        energy (eV)        error (eV/A)        frozen

         1    -133596.3910245            0.645830            F
         2    -133595.8667618            4.471122            F
         3    -133593.2352168            9.344846            F
         4    -133590.2495882           11.439734            F
         5    -133594.4800443            0.683179            F

     path length          =  8.079 bohr
     inter-image distance =  2.020 bohr

     ------------------------------ iteration  26 ------------------------------

     tcpu =   3680.5    self-consistency for image   1
     Message from routine setup:
     using ibrav=0 with symmetry is DISCOURAGED, use correct ibrav instead
     tcpu =   3703.0    self-consistency for image   2
     Message from routine setup:
     using ibrav=0 with symmetry is DISCOURAGED, use correct ibrav instead
     tcpu =   3732.6    self-consistency for image   3
     Message from routine setup:
     using ibrav=0 with symmetry is DISCOURAGED, use correct ibrav instead
     tcpu =   3767.9    self-consistency for image   4
     Message from routine setup:
     using ibrav=0 with symmetry is DISCOURAGED, use correct ibrav instead
     tcpu =   3820.8    self-consistency for image   5
     Message from routine setup:
     using ibrav=0 with symmetry is DISCOURAGED, use correct ibrav instead

     activation energy (->) =   6.068629 eV
     activation energy (<-) =   4.158964 eV

     image        energy (eV)        error (eV/A)        frozen

         1    -133596.3985432            0.642546            F
         2    -133595.9040871            4.331897            F
         3    -133593.3774514            8.876784            F
         4    -133590.3299142           15.464341            F
         5    -133594.4888785            0.832885            F

     path length          =  8.092 bohr
     inter-image distance =  2.023 bohr

     ------------------------------ iteration  27 ------------------------------

     tcpu =   3848.1    self-consistency for image   1
     Message from routine setup:
     using ibrav=0 with symmetry is DISCOURAGED, use correct ibrav instead
     tcpu =   3873.3    self-consistency for image   2
     Message from routine setup:
     using ibrav=0 with symmetry is DISCOURAGED, use correct ibrav instead
     tcpu =   3903.1    self-consistency for image   3
     Message from routine setup:
     using ibrav=0 with symmetry is DISCOURAGED, use correct ibrav instead
     tcpu =   3940.5    self-consistency for image   4
     Message from routine setup:
     using ibrav=0 with symmetry is DISCOURAGED, use correct ibrav instead
     tcpu =   3992.4    self-consistency for image   5
     Message from routine setup:
     using ibrav=0 with symmetry is DISCOURAGED, use correct ibrav instead

     activation energy (->) =   5.977218 eV
     activation energy (<-) =   4.068990 eV

     image        energy (eV)        error (eV/A)        frozen

         1    -133596.4082968            0.636404            F
         2    -133595.9511270            4.155520            F
         3    -133593.5468858            8.290522            F
         4    -133590.4310783           18.142938            F
         5    -133594.5000681            1.210875            F

     path length          =  8.108 bohr
     inter-image distance =  2.027 bohr

     ------------------------------ iteration  28 ------------------------------

     tcpu =   4020.5    self-consistency for image   1
     Message from routine setup:
     using ibrav=0 with symmetry is DISCOURAGED, use correct ibrav instead
     tcpu =   4042.5    self-consistency for image   2
     Message from routine setup:
     using ibrav=0 with symmetry is DISCOURAGED, use correct ibrav instead
     tcpu =   4067.9    self-consistency for image   3
     Message from routine setup:
     using ibrav=0 with symmetry is DISCOURAGED, use correct ibrav instead
     tcpu =   4099.9    self-consistency for image   4
     Message from routine setup:
     using ibrav=0 with symmetry is DISCOURAGED, use correct ibrav instead
     tcpu =   4141.9    self-consistency for image   5
     Message from routine setup:
     using ibrav=0 with symmetry is DISCOURAGED, use correct ibrav instead

     activation energy (->) =   5.901202 eV
     activation energy (<-) =   3.993813 eV

     image        energy (eV)        error (eV/A)        frozen

         1    -133596.4135947            0.633918            F
         2    -133595.9760344            4.061654            F
         3    -133593.6342845            7.975337            F
         4    -133590.5123927           18.617330            F
         5    -133594.5062053            1.331632            F

     path length          =  8.115 bohr
     inter-image distance =  2.029 bohr

     ------------------------------ iteration  29 ------------------------------

     tcpu =   4165.3    self-consistency for image   1
     Message from routine setup:
     using ibrav=0 with symmetry is DISCOURAGED, use correct ibrav instead
     tcpu =   4185.3    self-consistency for image   2
     Message from routine setup:
     using ibrav=0 with symmetry is DISCOURAGED, use correct ibrav instead
     tcpu =   4210.8    self-consistency for image   3
     Message from routine setup:
     using ibrav=0 with symmetry is DISCOURAGED, use correct ibrav instead
     tcpu =   4243.2    self-consistency for image   4
     Message from routine setup:
     using ibrav=0 with symmetry is DISCOURAGED, use correct ibrav instead
     tcpu =   4285.8    self-consistency for image   5
     Message from routine setup:
     using ibrav=0 with symmetry is DISCOURAGED, use correct ibrav instead

     activation energy (->) =   5.800978 eV
     activation energy (<-) =   3.894465 eV

     image        energy (eV)        error (eV/A)        frozen

         1    -133596.4181536            0.630580            F
         2    -133595.9970234            3.982325            F
         3    -133593.7082067            7.707498            F
         4    -133590.6171757           18.301499            F
         5    -133594.5116403            1.360202            F

     path length          =  8.120 bohr
     inter-image distance =  2.030 bohr

     ------------------------------ iteration  30 ------------------------------

     tcpu =   4309.1    self-consistency for image   1
     Message from routine setup:
     using ibrav=0 with symmetry is DISCOURAGED, use correct ibrav instead
     tcpu =   4326.3    self-consistency for image   2
     Message from routine setup:
     using ibrav=0 with symmetry is DISCOURAGED, use correct ibrav instead
     tcpu =   4351.4    self-consistency for image   3
     Message from routine setup:
     using ibrav=0 with symmetry is DISCOURAGED, use correct ibrav instead
     tcpu =   4383.9    self-consistency for image   4
     Message from routine setup:
     using ibrav=0 with symmetry is DISCOURAGED, use correct ibrav instead
     tcpu =   4419.7    self-consistency for image   5
     Message from routine setup:
     using ibrav=0 with symmetry is DISCOURAGED, use correct ibrav instead

     activation energy (->) =   5.701774 eV
     activation energy (<-) =   3.796001 eV

     image        energy (eV)        error (eV/A)        frozen

         1    -133596.4211817            0.599427            F
         2    -133596.0106835            3.930987            F
         3    -133593.7572262            7.529319            F
         4    -133590.7194078           17.395406            F
         5    -133594.5154093            1.294872            F

     path length          =  8.122 bohr
     inter-image distance =  2.031 bohr

     ------------------------------ iteration  31 ------------------------------

     tcpu =   4441.3    self-consistency for image   1
     Message from routine setup:
     using ibrav=0 with symmetry is DISCOURAGED, use correct ibrav instead
     tcpu =   4463.0    self-consistency for image   2
     Message from routine setup:
     using ibrav=0 with symmetry is DISCOURAGED, use correct ibrav instead
     tcpu =   4488.0    self-consistency for image   3
     Message from routine setup:
     using ibrav=0 with symmetry is DISCOURAGED, use correct ibrav instead
     tcpu =   4519.0    self-consistency for image   4
     Message from routine setup:
     using ibrav=0 with symmetry is DISCOURAGED, use correct ibrav instead
     tcpu =   4555.6    self-consistency for image   5
     Message from routine setup:
     using ibrav=0 with symmetry is DISCOURAGED, use correct ibrav instead

     activation energy (->) =   5.524535 eV
     activation energy (<-) =   3.620080 eV

     image        energy (eV)        error (eV/A)        frozen

         1    -133596.4260771            0.626186            F
         2    -133596.0324496            3.848604            F
         3    -133593.8348271            7.241398            F
         4    -133590.9015423           15.128116            F
         5    -133594.5216221            1.157771            F

     path length          =  8.124 bohr
     inter-image distance =  2.031 bohr

     ------------------------------ iteration  32 ------------------------------

     tcpu =   4580.1    self-consistency for image   1
     Message from routine setup:
     using ibrav=0 with symmetry is DISCOURAGED, use correct ibrav instead
     tcpu =   4606.4    self-consistency for image   2
     Message from routine setup:
     using ibrav=0 with symmetry is DISCOURAGED, use correct ibrav instead
     tcpu =   4639.2    self-consistency for image   3
     Message from routine setup:
     using ibrav=0 with symmetry is DISCOURAGED, use correct ibrav instead
     tcpu =   4679.6    self-consistency for image   4
     Message from routine setup:
     using ibrav=0 with symmetry is DISCOURAGED, use correct ibrav instead
     tcpu =   4725.5    self-consistency for image   5
     Message from routine setup:
     using ibrav=0 with symmetry is DISCOURAGED, use correct ibrav instead

     activation energy (->) =   5.130820 eV
     activation energy (<-) =   3.229858 eV

     image        energy (eV)        error (eV/A)        frozen

         1    -133596.4398867            0.617879            F
         2    -133596.0921687            3.621714            F
         3    -133594.0363108            6.468385            F
         4    -133591.3090669            6.557381            F
         5    -133594.5389245            0.704606            F

     path length          =  8.131 bohr
     inter-image distance =  2.033 bohr

     ------------------------------ iteration  33 ------------------------------

     tcpu =   4760.1    self-consistency for image   1
     Message from routine setup:
     using ibrav=0 with symmetry is DISCOURAGED, use correct ibrav instead
     tcpu =   4790.4    self-consistency for image   2
     Message from routine setup:
     using ibrav=0 with symmetry is DISCOURAGED, use correct ibrav instead
     tcpu =   4824.9    self-consistency for image   3
     Message from routine setup:
     using ibrav=0 with symmetry is DISCOURAGED, use correct ibrav instead
     tcpu =   4865.1    self-consistency for image   4
     Message from routine setup:
     using ibrav=0 with symmetry is DISCOURAGED, use correct ibrav instead
     tcpu =   4909.3    self-consistency for image   5
     Message from routine setup:
     using ibrav=0 with symmetry is DISCOURAGED, use correct ibrav instead

     activation energy (->) =   4.949258 eV
     activation energy (<-) =   3.051449 eV

     image        energy (eV)        error (eV/A)        frozen

         1    -133596.4542983            0.609265            F
         2    -133596.1520360            3.389228            F
         3    -133594.2199796            5.715143            F
         4    -133591.5050405           12.695919            F
         5    -133594.5564899            0.689592            F

     path length          =  8.140 bohr
     inter-image distance =  2.035 bohr

     ------------------------------ iteration  34 ------------------------------

     tcpu =   4947.6    self-consistency for image   1
     Message from routine setup:
     using ibrav=0 with symmetry is DISCOURAGED, use correct ibrav instead
     tcpu =   4974.8    self-consistency for image   2
     Message from routine setup:
     using ibrav=0 with symmetry is DISCOURAGED, use correct ibrav instead
     tcpu =   5004.8    self-consistency for image   3
     Message from routine setup:
     using ibrav=0 with symmetry is DISCOURAGED, use correct ibrav instead
     tcpu =   5039.1    self-consistency for image   4
     Message from routine setup:
     using ibrav=0 with symmetry is DISCOURAGED, use correct ibrav instead
     tcpu =   5078.8    self-consistency for image   5
     Message from routine setup:
     using ibrav=0 with symmetry is DISCOURAGED, use correct ibrav instead

     activation energy (->) =   4.931611 eV
     activation energy (<-) =   3.035534 eV

     image        energy (eV)        error (eV/A)        frozen

         1    -133596.4631362            0.603342            F
         2    -133596.1874121            3.250190            F
         3    -133594.3199865            5.511010            F
         4    -133591.5315249           19.069233            F
         5    -133594.5670585            0.777428            F

     path length          =  8.148 bohr
     inter-image distance =  2.037 bohr

     ------------------------------ iteration  35 ------------------------------

     tcpu =   5106.6    self-consistency for image   1
     Message from routine setup:
     using ibrav=0 with symmetry is DISCOURAGED, use correct ibrav instead
     tcpu =   5123.7    self-consistency for image   2
     Message from routine setup:
     using ibrav=0 with symmetry is DISCOURAGED, use correct ibrav instead
     tcpu =   5149.1    self-consistency for image   3
     Message from routine setup:
     using ibrav=0 with symmetry is DISCOURAGED, use correct ibrav instead
     tcpu =   5179.9    self-consistency for image   4
     Message from routine setup:
     using ibrav=0 with symmetry is DISCOURAGED, use correct ibrav instead
     tcpu =   5208.8    self-consistency for image   5
     Message from routine setup:
     using ibrav=0 with symmetry is DISCOURAGED, use correct ibrav instead

     activation energy (->) =   4.894219 eV
     activation energy (<-) =   2.998611 eV

     image        energy (eV)        error (eV/A)        frozen

         1    -133596.4653133            0.582681            F
         2    -133596.1958389            3.218000            F
         3    -133594.3430520            5.531764            F
         4    -133591.5710945           18.677285            F
         5    -133594.5697058            0.773263            F

     path length          =  8.152 bohr
     inter-image distance =  2.038 bohr

     ------------------------------ iteration  36 ------------------------------

     tcpu =   5226.2    self-consistency for image   1
     Message from routine setup:
     using ibrav=0 with symmetry is DISCOURAGED, use correct ibrav instead
     tcpu =   5242.3    self-consistency for image   2
     Message from routine setup:
     using ibrav=0 with symmetry is DISCOURAGED, use correct ibrav instead
     tcpu =   5264.5    self-consistency for image   3
     Message from routine setup:
     using ibrav=0 with symmetry is DISCOURAGED, use correct ibrav instead
     tcpu =   5286.8    self-consistency for image   4
     Message from routine setup:
     using ibrav=0 with symmetry is DISCOURAGED, use correct ibrav instead
     tcpu =   5318.8    self-consistency for image   5
     Message from routine setup:
     using ibrav=0 with symmetry is DISCOURAGED, use correct ibrav instead

     activation energy (->) =   4.838862 eV
     activation energy (<-) =   2.943571 eV

     image        energy (eV)        error (eV/A)        frozen

         1    -133596.4666273            0.587221            F
         2    -133596.2007168            3.199634            F
         3    -133594.3562541            5.352641            F
         4    -133591.6277654           16.690223            F
         5    -133594.5713367            0.754816            F

     path length          =  8.155 bohr
     inter-image distance =  2.039 bohr

     ------------------------------ iteration  37 ------------------------------

     tcpu =   5335.6    self-consistency for image   1
     Message from routine setup:
     using ibrav=0 with symmetry is DISCOURAGED, use correct ibrav instead
     tcpu =   5357.2    self-consistency for image   2
     Message from routine setup:
     using ibrav=0 with symmetry is DISCOURAGED, use correct ibrav instead
     tcpu =   5382.8    self-consistency for image   3
     Message from routine setup:
     using ibrav=0 with symmetry is DISCOURAGED, use correct ibrav instead
     tcpu =   5413.5    self-consistency for image   4
     Message from routine setup:
     using ibrav=0 with symmetry is DISCOURAGED, use correct ibrav instead
     tcpu =   5453.5    self-consistency for image   5
     Message from routine setup:
     using ibrav=0 with symmetry is DISCOURAGED, use correct ibrav instead

     activation energy (->) =   4.680947 eV
     activation energy (<-) =   2.786777 eV

     image        energy (eV)        error (eV/A)        frozen

         1    -133596.4712025            0.599030            F
         2    -133596.2173362            3.136846            F
         3    -133594.4001288            5.031813            F
         4    -133591.7902556            9.355941            F
         5    -133594.5770327            0.679675            F

     path length          =  8.167 bohr
     inter-image distance =  2.042 bohr

     ------------------------------ iteration  38 ------------------------------

     tcpu =   5478.3    self-consistency for image   1
     Message from routine setup:
     using ibrav=0 with symmetry is DISCOURAGED, use correct ibrav instead
     tcpu =   5505.9    self-consistency for image   2
     Message from routine setup:
     using ibrav=0 with symmetry is DISCOURAGED, use correct ibrav instead
     tcpu =   5535.5    self-consistency for image   3
     Message from routine setup:
     using ibrav=0 with symmetry is DISCOURAGED, use correct ibrav instead
     tcpu =   5575.7    self-consistency for image   4
     Message from routine setup:
     using ibrav=0 with symmetry is DISCOURAGED, use correct ibrav instead
     tcpu =   5626.4    self-consistency for image   5
     Message from routine setup:
     using ibrav=0 with symmetry is DISCOURAGED, use correct ibrav instead

     activation energy (->) =   4.592567 eV
     activation energy (<-) =   2.701212 eV

     image        energy (eV)        error (eV/A)        frozen

         1    -133596.4832190            0.591221            F
         2    -133596.2600894            2.972912            F
         3    -133594.5059393            4.706133            F
         4    -133591.8906523           10.832400            F
         5    -133594.5918644            0.678172            F

     path length          =  8.198 bohr
     inter-image distance =  2.050 bohr

     ------------------------------ iteration  39 ------------------------------

     tcpu =   5662.7    self-consistency for image   1
     Message from routine setup:
     using ibrav=0 with symmetry is DISCOURAGED, use correct ibrav instead
     tcpu =   5687.5    self-consistency for image   2
     Message from routine setup:
     using ibrav=0 with symmetry is DISCOURAGED, use correct ibrav instead
     tcpu =   5716.9    self-consistency for image   3
     Message from routine setup:
     using ibrav=0 with symmetry is DISCOURAGED, use correct ibrav instead
     tcpu =   5750.9    self-consistency for image   4
     Message from routine setup:
     using ibrav=0 with symmetry is DISCOURAGED, use correct ibrav instead
     tcpu =   5801.6    self-consistency for image   5
     Message from routine setup:
     using ibrav=0 with symmetry is DISCOURAGED, use correct ibrav instead

     activation energy (->) =   4.683005 eV
     activation energy (<-) =   2.793573 eV

     image        energy (eV)        error (eV/A)        frozen

         1    -133596.4919737            0.585778            F
         2    -133596.2903925            2.855863            F
         3    -133594.5754738            4.475948            F
         4    -133591.8089690           16.209707            F
         5    -133594.6025416            0.673463            F

     path length          =  8.220 bohr
     inter-image distance =  2.055 bohr

     ------------------------------ iteration  40 ------------------------------

     tcpu =   5836.7    self-consistency for image   1
     Message from routine setup:
     using ibrav=0 with symmetry is DISCOURAGED, use correct ibrav instead
     tcpu =   5854.7    self-consistency for image   2
     Message from routine setup:
     using ibrav=0 with symmetry is DISCOURAGED, use correct ibrav instead
     tcpu =   5871.1    self-consistency for image   3
     Message from routine setup:
     using ibrav=0 with symmetry is DISCOURAGED, use correct ibrav instead
     tcpu =   5891.1    self-consistency for image   4
     Message from routine setup:
     using ibrav=0 with symmetry is DISCOURAGED, use correct ibrav instead
     tcpu =   5920.9    self-consistency for image   5
     Message from routine setup:
     using ibrav=0 with symmetry is DISCOURAGED, use correct ibrav instead

     activation energy (->) =   4.639601 eV
     activation energy (<-) =   2.750065 eV

     image        energy (eV)        error (eV/A)        frozen

         1    -133596.4914000            0.591738            F
         2    -133596.2882823            2.869297            F
         3    -133594.5707749            4.492503            F
         4    -133591.8517990           15.124349            F
         5    -133594.6018639            0.678515            F

     path length          =  8.217 bohr
     inter-image distance =  2.054 bohr

     ------------------------------ iteration  41 ------------------------------

     tcpu =   5941.2    self-consistency for image   1
     Message from routine setup:
     using ibrav=0 with symmetry is DISCOURAGED, use correct ibrav instead
     tcpu =   5957.4    self-consistency for image   2
     Message from routine setup:
     using ibrav=0 with symmetry is DISCOURAGED, use correct ibrav instead
     tcpu =   5974.8    self-consistency for image   3
     Message from routine setup:
     using ibrav=0 with symmetry is DISCOURAGED, use correct ibrav instead
     tcpu =   5992.5    self-consistency for image   4
     Message from routine setup:
     using ibrav=0 with symmetry is DISCOURAGED, use correct ibrav instead
     tcpu =   6022.0    self-consistency for image   5
     Message from routine setup:
     using ibrav=0 with symmetry is DISCOURAGED, use correct ibrav instead

     activation energy (->) =   4.591273 eV
     activation energy (<-) =   2.701834 eV

     image        energy (eV)        error (eV/A)        frozen

         1    -133596.4917909            0.582165            F
         2    -133596.2893569            2.861017            F
         3    -133594.5730700            4.477179            F
         4    -133591.9005176           13.939704            F
         5    -133594.6023519            0.669712            F

     path length          =  8.215 bohr
     inter-image distance =  2.054 bohr

     ------------------------------ iteration  42 ------------------------------

     tcpu =   6039.4    self-consistency for image   1
     Message from routine setup:
     using ibrav=0 with symmetry is DISCOURAGED, use correct ibrav instead
     tcpu =   6057.0    self-consistency for image   2
     Message from routine setup:
     using ibrav=0 with symmetry is DISCOURAGED, use correct ibrav instead
     tcpu =   6078.8    self-consistency for image   3
     Message from routine setup:
     using ibrav=0 with symmetry is DISCOURAGED, use correct ibrav instead
     tcpu =   6099.2    self-consistency for image   4
     Message from routine setup:
     using ibrav=0 with symmetry is DISCOURAGED, use correct ibrav instead
     tcpu =   6134.2    self-consistency for image   5
     Message from routine setup:
     using ibrav=0 with symmetry is DISCOURAGED, use correct ibrav instead

     activation energy (->) =   4.499003 eV
     activation energy (<-) =   2.609994 eV

     image        energy (eV)        error (eV/A)        frozen

         1    -133596.4934906            0.567188            F
         2    -133596.2946571            2.843341            F
         3    -133594.5845105            4.433557            F
         4    -133591.9944873           11.253580            F
         5    -133594.6044812            0.657597            F

     path length          =  8.212 bohr
     inter-image distance =  2.053 bohr

     ------------------------------ iteration  43 ------------------------------

     tcpu =   6155.8    self-consistency for image   1
     Message from routine setup:
     using ibrav=0 with symmetry is DISCOURAGED, use correct ibrav instead
     tcpu =   6177.5    self-consistency for image   2
     Message from routine setup:
     using ibrav=0 with symmetry is DISCOURAGED, use correct ibrav instead
     tcpu =   6206.5    self-consistency for image   3
     Message from routine setup:
     using ibrav=0 with symmetry is DISCOURAGED, use correct ibrav instead
     tcpu =   6238.7    self-consistency for image   4
     Message from routine setup:
     using ibrav=0 with symmetry is DISCOURAGED, use correct ibrav instead
     tcpu =   6278.4    self-consistency for image   5
     Message from routine setup:
     using ibrav=0 with symmetry is DISCOURAGED, use correct ibrav instead

     activation energy (->) =   4.365414 eV
     activation energy (<-) =   2.477816 eV

     image        energy (eV)        error (eV/A)        frozen

         1    -133596.4994394            0.582030            F
         2    -133596.3130874            2.776868            F
         3    -133594.6224910            4.276799            F
         4    -133592.1340250            6.287682            F
         5    -133594.6118408            0.670708            F

     path length          =  8.205 bohr
     inter-image distance =  2.051 bohr

     broyden uphill step : history is reset


     ------------------------------ iteration  44 ------------------------------

     tcpu =   6306.0    self-consistency for image   1
     Message from routine setup:
     using ibrav=0 with symmetry is DISCOURAGED, use correct ibrav instead
     tcpu =   6321.8    self-consistency for image   2
     Message from routine setup:
     using ibrav=0 with symmetry is DISCOURAGED, use correct ibrav instead
     tcpu =   6339.0    self-consistency for image   3
     Message from routine setup:
     using ibrav=0 with symmetry is DISCOURAGED, use correct ibrav instead
     tcpu =   6357.1    self-consistency for image   4
     Message from routine setup:
     using ibrav=0 with symmetry is DISCOURAGED, use correct ibrav instead
     tcpu =   6381.6    self-consistency for image   5
     Message from routine setup:
     using ibrav=0 with symmetry is DISCOURAGED, use correct ibrav instead

     activation energy (->) =   4.360330 eV
     activation energy (<-) =   2.472840 eV

     image        energy (eV)        error (eV/A)        frozen

         1    -133596.4999107            0.577344            F
         2    -133596.3145197            2.769252            F
         3    -133594.6254560            4.252484            F
         4    -133592.1395803            6.069996            F
         5    -133594.6124201            0.664452            F

     path length          =  8.205 bohr
     inter-image distance =  2.051 bohr

     ------------------------------ iteration  45 ------------------------------

     tcpu =   6401.0    self-consistency for image   1
     Message from routine setup:
     using ibrav=0 with symmetry is DISCOURAGED, use correct ibrav instead
     tcpu =   6438.2    self-consistency for image   2
     Message from routine setup:
     using ibrav=0 with symmetry is DISCOURAGED, use correct ibrav instead
     tcpu =   6479.1    self-consistency for image   3
     Message from routine setup:
     using ibrav=0 with symmetry is DISCOURAGED, use correct ibrav instead
     tcpu =   6520.7    self-consistency for image   4
     Message from routine setup:
     using ibrav=0 with symmetry is DISCOURAGED, use correct ibrav instead
     tcpu =   6580.5    self-consistency for image   5
     Message from routine setup:
     using ibrav=0 with symmetry is DISCOURAGED, use correct ibrav instead

     activation energy (->) =   4.193931 eV
     activation energy (<-) =   2.316454 eV

     image        energy (eV)        error (eV/A)        frozen

         1    -133596.5419594            0.554898            F
         2    -133596.4392181            2.311200            F
         3    -133594.8758511            3.435901            F
         4    -133592.3480287           13.795634            F
         5    -133594.6644827            0.649594            F

     path length          =  8.279 bohr
     inter-image distance =  2.070 bohr

     ------------------------------ iteration  46 ------------------------------

     tcpu =   6621.0    self-consistency for image   1
     Message from routine setup:
     using ibrav=0 with symmetry is DISCOURAGED, use correct ibrav instead
     tcpu =   6658.5    self-consistency for image   2
     Message from routine setup:
     using ibrav=0 with symmetry is DISCOURAGED, use correct ibrav instead
     tcpu =   6697.8    self-consistency for image   3
     Message from routine setup:
     using ibrav=0 with symmetry is DISCOURAGED, use correct ibrav instead
     tcpu =   6738.6    self-consistency for image   4
     Message from routine setup:
     using ibrav=0 with symmetry is DISCOURAGED, use correct ibrav instead
     tcpu =   6793.4    self-consistency for image   5
     Message from routine setup:
     using ibrav=0 with symmetry is DISCOURAGED, use correct ibrav instead

     activation energy (->) =   4.255084 eV
     activation energy (<-) =   2.383549 eV

     image        energy (eV)        error (eV/A)        frozen

         1    -133596.5663960            0.538062            F
         2    -133596.5073962            2.057493            F
         3    -133595.0057096            3.034351            F
         4    -133592.3113121           17.951093            F
         5    -133594.6948610            0.660788            F

     path length          =  8.325 bohr
     inter-image distance =  2.081 bohr

     ------------------------------ iteration  47 ------------------------------

     tcpu =   6832.3    self-consistency for image   1
     Message from routine setup:
     using ibrav=0 with symmetry is DISCOURAGED, use correct ibrav instead
     tcpu =   6863.6    self-consistency for image   2
     Message from routine setup:
     using ibrav=0 with symmetry is DISCOURAGED, use correct ibrav instead
     tcpu =   6897.6    self-consistency for image   3
     Message from routine setup:
     using ibrav=0 with symmetry is DISCOURAGED, use correct ibrav instead
     tcpu =   6940.7    self-consistency for image   4
     Message from routine setup:
     using ibrav=0 with symmetry is DISCOURAGED, use correct ibrav instead
     tcpu =   6992.4    self-consistency for image   5
     Message from routine setup:
     using ibrav=0 with symmetry is DISCOURAGED, use correct ibrav instead

     activation energy (->) =   4.292428 eV
     activation energy (<-) =   2.424962 eV

     image        energy (eV)        error (eV/A)        frozen

         1    -133596.5828234            0.526701            F
         2    -133596.5513841            1.893029            F
         3    -133595.0868636            3.019018            F
         4    -133592.2903952           19.436947            F
         5    -133594.7153572            0.696895            F

     path length          =  8.356 bohr
     inter-image distance =  2.089 bohr

     ------------------------------ iteration  48 ------------------------------

     tcpu =   7034.1    self-consistency for image   1
     Message from routine setup:
     using ibrav=0 with symmetry is DISCOURAGED, use correct ibrav instead
     tcpu =   7061.6    self-consistency for image   2
     Message from routine setup:
     using ibrav=0 with symmetry is DISCOURAGED, use correct ibrav instead
     tcpu =   7092.8    self-consistency for image   3
     Message from routine setup:
     using ibrav=0 with symmetry is DISCOURAGED, use correct ibrav instead
     tcpu =   7126.3    self-consistency for image   4
     Message from routine setup:
     using ibrav=0 with symmetry is DISCOURAGED, use correct ibrav instead
     tcpu =   7165.3    self-consistency for image   5
     Message from routine setup:
     using ibrav=0 with symmetry is DISCOURAGED, use correct ibrav instead

     activation energy (->) =   4.268552 eV
     activation energy (<-) =   2.403123 eV

     image        energy (eV)        error (eV/A)        frozen

         1    -133596.5909279            0.521925            F
         2    -133596.5724600            1.814417            F
         3    -133595.1252532            2.947027            F
         4    -133592.3223759           19.614546            F
         5    -133594.7254987            0.708002            F

     path length          =  8.370 bohr
     inter-image distance =  2.093 bohr

     ------------------------------ iteration  49 ------------------------------

     tcpu =   7199.0    self-consistency for image   1
     Message from routine setup:
     using ibrav=0 with symmetry is DISCOURAGED, use correct ibrav instead
     tcpu =   7215.3    self-consistency for image   2
     Message from routine setup:
     using ibrav=0 with symmetry is DISCOURAGED, use correct ibrav instead
     tcpu =   7233.9    self-consistency for image   3
     Message from routine setup:
     using ibrav=0 with symmetry is DISCOURAGED, use correct ibrav instead
     tcpu =   7251.0    self-consistency for image   4
     Message from routine setup:
     using ibrav=0 with symmetry is DISCOURAGED, use correct ibrav instead
     tcpu =   7275.2    self-consistency for image   5
     Message from routine setup:
     using ibrav=0 with symmetry is DISCOURAGED, use correct ibrav instead

     activation energy (->) =   4.219619 eV
     activation energy (<-) =   2.354366 eV

     image        energy (eV)        error (eV/A)        frozen

         1    -133596.5915290            0.514899            F
         2    -133596.5738843            1.807968            F
         3    -133595.1280614            2.893398            F
         4    -133592.3719097           19.194032            F
         5    -133594.7262762            0.679604            F

     path length          =  8.369 bohr
     inter-image distance =  2.092 bohr

     ------------------------------ iteration  50 ------------------------------

     tcpu =   7292.0    self-consistency for image   1
     Message from routine setup:
     using ibrav=0 with symmetry is DISCOURAGED, use correct ibrav instead
     tcpu =   7327.6    self-consistency for image   2
     Message from routine setup:
     using ibrav=0 with symmetry is DISCOURAGED, use correct ibrav instead
     tcpu =   7362.8    self-consistency for image   3
     Message from routine setup:
     using ibrav=0 with symmetry is DISCOURAGED, use correct ibrav instead
     tcpu =   7398.8    self-consistency for image   4
     Message from routine setup:
     using ibrav=0 with symmetry is DISCOURAGED, use correct ibrav instead
     tcpu =   7445.6    self-consistency for image   5
     Message from routine setup:
     using ibrav=0 with symmetry is DISCOURAGED, use correct ibrav instead

     activation energy (->) =   3.710093 eV
     activation energy (<-) =   1.849237 eV

     image        energy (eV)        error (eV/A)        frozen

         1    -133596.6077806            0.515039            F
         2    -133596.6120620            1.684792            F
         3    -133595.1928829            2.917581            F
         4    -133592.8976871           14.582702            F
         5    -133594.7469244            0.619371            F

     path length          =  8.346 bohr
     inter-image distance =  2.086 bohr

     ------------------------------ iteration  51 ------------------------------

     tcpu =   7486.4    self-consistency for image   1
     Message from routine setup:
     using ibrav=0 with symmetry is DISCOURAGED, use correct ibrav instead
     tcpu =   7504.3    self-consistency for image   2
     Message from routine setup:
     using ibrav=0 with symmetry is DISCOURAGED, use correct ibrav instead
     tcpu =   7521.9    self-consistency for image   3
     Message from routine setup:
     using ibrav=0 with symmetry is DISCOURAGED, use correct ibrav instead
     tcpu =   7547.7    self-consistency for image   4
     Message from routine setup:
     using ibrav=0 with symmetry is DISCOURAGED, use correct ibrav instead
     tcpu =   7586.1    self-consistency for image   5
     Message from routine setup:
     using ibrav=0 with symmetry is DISCOURAGED, use correct ibrav instead

     activation energy (->) =   3.609662 eV
     activation energy (<-) =   1.748224 eV

     image        energy (eV)        error (eV/A)        frozen

         1    -133596.6053716            0.542048            F
         2    -133596.6064408            1.714991            F
         3    -133595.1850178            2.311074            F
         4    -133592.9957094            5.692239            F
         5    -133594.7439332            0.619921            F

     path length          =  8.351 bohr
     inter-image distance =  2.088 bohr

     ------------------------------ iteration  52 ------------------------------

     tcpu =   7611.2    self-consistency for image   1
     Message from routine setup:
     using ibrav=0 with symmetry is DISCOURAGED, use correct ibrav instead
     tcpu =   7628.4    self-consistency for image   2
     Message from routine setup:
     using ibrav=0 with symmetry is DISCOURAGED, use correct ibrav instead
     tcpu =   7645.7    self-consistency for image   3
     Message from routine setup:
     using ibrav=0 with symmetry is DISCOURAGED, use correct ibrav instead
     tcpu =   7663.8    self-consistency for image   4
     Message from routine setup:
     using ibrav=0 with symmetry is DISCOURAGED, use correct ibrav instead
     tcpu =   7685.1    self-consistency for image   5
     Message from routine setup:
     using ibrav=0 with symmetry is DISCOURAGED, use correct ibrav instead

     activation energy (->) =   3.612149 eV
     activation energy (<-) =   1.750889 eV

     image        energy (eV)        error (eV/A)        frozen

         1    -133596.6062100            0.506234            F
         2    -133596.6083359            1.695111            F
         3    -133595.1878654            2.376393            F
         4    -133592.9940605            6.624088            F
         5    -133594.7449498            0.606611            F

     path length          =  8.351 bohr
     inter-image distance =  2.088 bohr

     ------------------------------ iteration  53 ------------------------------

     tcpu =   7705.9    self-consistency for image   1
     Message from routine setup:
     using ibrav=0 with symmetry is DISCOURAGED, use correct ibrav instead
     tcpu =   7717.3    self-consistency for image   2
     Message from routine setup:
     using ibrav=0 with symmetry is DISCOURAGED, use correct ibrav instead
     tcpu =   7727.8    self-consistency for image   3
     Message from routine setup:
     using ibrav=0 with symmetry is DISCOURAGED, use correct ibrav instead
     tcpu =   7745.0    self-consistency for image   4
     Message from routine setup:
     using ibrav=0 with symmetry is DISCOURAGED, use correct ibrav instead
     tcpu =   7767.1    self-consistency for image   5
     Message from routine setup:
     using ibrav=0 with symmetry is DISCOURAGED, use correct ibrav instead

     activation energy (->) =   3.606353 eV
     activation energy (<-) =   1.745098 eV

     image        energy (eV)        error (eV/A)        frozen

         1    -133596.6061888            0.516079            F
         2    -133596.6082523            1.700183            F
         3    -133595.1878308            2.305059            F
         4    -133592.9998355            5.763966            F
         5    -133594.7449337            0.619966            F

     path length          =  8.352 bohr
     inter-image distance =  2.088 bohr

     ------------------------------ iteration  54 ------------------------------

     tcpu =   7780.9    self-consistency for image   1
     Message from routine setup:
     using ibrav=0 with symmetry is DISCOURAGED, use correct ibrav instead
     tcpu =   7797.4    self-consistency for image   2
     Message from routine setup:
     using ibrav=0 with symmetry is DISCOURAGED, use correct ibrav instead
     tcpu =   7813.6    self-consistency for image   3
     Message from routine setup:
     using ibrav=0 with symmetry is DISCOURAGED, use correct ibrav instead
     tcpu =   7834.0    self-consistency for image   4
     Message from routine setup:
     using ibrav=0 with symmetry is DISCOURAGED, use correct ibrav instead
     tcpu =   7861.0    self-consistency for image   5
     Message from routine setup:
     using ibrav=0 with symmetry is DISCOURAGED, use correct ibrav instead

     activation energy (->) =   3.599835 eV
     activation energy (<-) =   1.738758 eV

     image        energy (eV)        error (eV/A)        frozen

[...]
         4    -133593.9564942            1.734589            F
         5    -133595.0272752            0.493810            F

     path length          =  8.664 bohr
     inter-image distance =  2.166 bohr

     ------------------------------ iteration 109 ------------------------------

     tcpu =  14747.3    self-consistency for image   1
     Message from routine setup:
     using ibrav=0 with symmetry is DISCOURAGED, use correct ibrav instead
     tcpu =  14768.5    self-consistency for image   2
     Message from routine setup:
     using ibrav=0 with symmetry is DISCOURAGED, use correct ibrav instead
     tcpu =  14795.7    self-consistency for image   3
     Message from routine setup:
     using ibrav=0 with symmetry is DISCOURAGED, use correct ibrav instead
     tcpu =  14819.9    self-consistency for image   4
     Message from routine setup:
     using ibrav=0 with symmetry is DISCOURAGED, use correct ibrav instead
     tcpu =  14850.4    self-consistency for image   5
     Message from routine setup:
     using ibrav=0 with symmetry is DISCOURAGED, use correct ibrav instead

     activation energy (->) =   2.861309 eV
     activation energy (<-) =   1.073356 eV

     image        energy (eV)        error (eV/A)        frozen

         1    -133596.8180398            0.439565            F
         2    -133597.0102530            0.771323            F
         3    -133595.7744293            0.833887            F
         4    -133593.9567304            3.814701            F
         5    -133595.0300863            0.504989            F

     path length          =  8.664 bohr
     inter-image distance =  2.166 bohr

     ------------------------------ iteration 110 ------------------------------

     tcpu =  14875.0    self-consistency for image   1
     Message from routine setup:
     using ibrav=0 with symmetry is DISCOURAGED, use correct ibrav instead
     tcpu =  14902.0    self-consistency for image   2
     Message from routine setup:
     using ibrav=0 with symmetry is DISCOURAGED, use correct ibrav instead
     tcpu =  14933.3    self-consistency for image   3
     Message from routine setup:
     using ibrav=0 with symmetry is DISCOURAGED, use correct ibrav instead
     tcpu =  14966.2    self-consistency for image   4
     Message from routine setup:
     using ibrav=0 with symmetry is DISCOURAGED, use correct ibrav instead
     tcpu =  15003.0    self-consistency for image   5
     Message from routine setup:
     using ibrav=0 with symmetry is DISCOURAGED, use correct ibrav instead

     activation energy (->) =   2.889690 eV
     activation energy (<-) =   1.104266 eV

     image        energy (eV)        error (eV/A)        frozen

         1    -133596.8233832            0.437347            F
         2    -133597.0190608            0.757970            F
         3    -133595.7861243            0.833451            F
         4    -133593.9336933            8.611193            F
         5    -133595.0379593            0.504047            F

     path length          =  8.668 bohr
     inter-image distance =  2.167 bohr

     ------------------------------ iteration 111 ------------------------------

     tcpu =  15036.3    self-consistency for image   1
     Message from routine setup:
     using ibrav=0 with symmetry is DISCOURAGED, use correct ibrav instead
     tcpu =  15057.3    self-consistency for image   2
     Message from routine setup:
     using ibrav=0 with symmetry is DISCOURAGED, use correct ibrav instead
     tcpu =  15083.6    self-consistency for image   3
     Message from routine setup:
     using ibrav=0 with symmetry is DISCOURAGED, use correct ibrav instead
     tcpu =  15110.3    self-consistency for image   4
     Message from routine setup:
     using ibrav=0 with symmetry is DISCOURAGED, use correct ibrav instead
     tcpu =  15133.4    self-consistency for image   5
     Message from routine setup:
     using ibrav=0 with symmetry is DISCOURAGED, use correct ibrav instead

     activation energy (->) =   2.898168 eV
     activation energy (<-) =   1.113715 eV

     image        energy (eV)        error (eV/A)        frozen

         1    -133596.8254404            0.437240            F
         2    -133597.0224524            0.752539            F
         3    -133595.7906129            0.826718            F
         4    -133593.9272727            9.658632            F
         5    -133595.0409875            0.500190            F

     path length          =  8.670 bohr
     inter-image distance =  2.168 bohr

     ------------------------------ iteration 112 ------------------------------

     tcpu =  15157.8    self-consistency for image   1
     Message from routine setup:
     using ibrav=0 with symmetry is DISCOURAGED, use correct ibrav instead
     tcpu =  15174.5    self-consistency for image   2
     Message from routine setup:
     using ibrav=0 with symmetry is DISCOURAGED, use correct ibrav instead
     tcpu =  15191.4    self-consistency for image   3
     Message from routine setup:
     using ibrav=0 with symmetry is DISCOURAGED, use correct ibrav instead
     tcpu =  15209.2    self-consistency for image   4
     Message from routine setup:
     using ibrav=0 with symmetry is DISCOURAGED, use correct ibrav instead
     tcpu =  15239.3    self-consistency for image   5
     Message from routine setup:
     using ibrav=0 with symmetry is DISCOURAGED, use correct ibrav instead

     activation energy (->) =   2.884638 eV
     activation energy (<-) =   1.099799 eV

     image        energy (eV)        error (eV/A)        frozen

         1    -133596.8245596            0.450349            F
         2    -133597.0210344            0.755049            F
         3    -133595.7887145            0.813431            F
         4    -133593.9399217            8.441076            F
         5    -133595.0397206            0.522100            F

     path length          =  8.670 bohr
     inter-image distance =  2.167 bohr

     ------------------------------ iteration 113 ------------------------------

     tcpu =  15256.6    self-consistency for image   1
     Message from routine setup:
     using ibrav=0 with symmetry is DISCOURAGED, use correct ibrav instead
     tcpu =  15270.6    self-consistency for image   2
     Message from routine setup:
     using ibrav=0 with symmetry is DISCOURAGED, use correct ibrav instead
     tcpu =  15282.3    self-consistency for image   3
     Message from routine setup:
     using ibrav=0 with symmetry is DISCOURAGED, use correct ibrav instead
     tcpu =  15295.7    self-consistency for image   4
     Message from routine setup:
     using ibrav=0 with symmetry is DISCOURAGED, use correct ibrav instead
     tcpu =  15321.4    self-consistency for image   5
     Message from routine setup:
     using ibrav=0 with symmetry is DISCOURAGED, use correct ibrav instead

     activation energy (->) =   2.874144 eV
     activation energy (<-) =   1.089314 eV

     image        energy (eV)        error (eV/A)        frozen

         1    -133596.8246427            0.436920            F
         2    -133597.0211312            0.754554            F
         3    -133595.7888681            0.827470            F
         4    -133593.9504982            7.527838            F
         5    -133595.0398120            0.503098            F

     path length          =  8.671 bohr
     inter-image distance =  2.168 bohr

     ------------------------------ iteration 114 ------------------------------

     tcpu =  15333.7    self-consistency for image   1
     Message from routine setup:
     using ibrav=0 with symmetry is DISCOURAGED, use correct ibrav instead
     tcpu =  15351.3    self-consistency for image   2
     Message from routine setup:
     using ibrav=0 with symmetry is DISCOURAGED, use correct ibrav instead
     tcpu =  15373.1    self-consistency for image   3
     Message from routine setup:
     using ibrav=0 with symmetry is DISCOURAGED, use correct ibrav instead
     tcpu =  15390.8    self-consistency for image   4
     Message from routine setup:
     using ibrav=0 with symmetry is DISCOURAGED, use correct ibrav instead
     tcpu =  15421.1    self-consistency for image   5
     Message from routine setup:
     using ibrav=0 with symmetry is DISCOURAGED, use correct ibrav instead

     activation energy (->) =   2.848231 eV
     activation energy (<-) =   1.063780 eV

     image        energy (eV)        error (eV/A)        frozen

         1    -133596.8253900            0.425286            F
         2    -133597.0223764            0.753363            F
         3    -133595.7904951            0.850230            F
         4    -133593.9771595            4.772439            F
         5    -133595.0409390            0.488026            F

     path length          =  8.675 bohr
     inter-image distance =  2.169 bohr

     ------------------------------ iteration 115 ------------------------------

     tcpu =  15443.3    self-consistency for image   1
     Message from routine setup:
     using ibrav=0 with symmetry is DISCOURAGED, use correct ibrav instead
     tcpu =  15463.9    self-consistency for image   2
     Message from routine setup:
     using ibrav=0 with symmetry is DISCOURAGED, use correct ibrav instead
     tcpu =  15480.0    self-consistency for image   3
     Message from routine setup:
     using ibrav=0 with symmetry is DISCOURAGED, use correct ibrav instead
     tcpu =  15501.9    self-consistency for image   4
     Message from routine setup:
     using ibrav=0 with symmetry is DISCOURAGED, use correct ibrav instead
     tcpu =  15539.6    self-consistency for image   5
     Message from routine setup:
     using ibrav=0 with symmetry is DISCOURAGED, use correct ibrav instead

     activation energy (->) =   2.831990 eV
     activation energy (<-) =   1.048203 eV

     image        energy (eV)        error (eV/A)        frozen

         1    -133596.8268108            0.437099            F
         2    -133597.0246774            0.749462            F
         3    -133595.7935912            0.836837            F
         4    -133593.9948210            1.621138            F
         5    -133595.0430240            0.469266            F

     path length          =  8.683 bohr
     inter-image distance =  2.171 bohr

     broyden uphill step : history is reset


     ------------------------------ iteration 116 ------------------------------

     tcpu =  15561.3    self-consistency for image   1
     Message from routine setup:
     using ibrav=0 with symmetry is DISCOURAGED, use correct ibrav instead
     tcpu =  15578.6    self-consistency for image   2
     Message from routine setup:
     using ibrav=0 with symmetry is DISCOURAGED, use correct ibrav instead
     tcpu =  15595.0    self-consistency for image   3
     Message from routine setup:
     using ibrav=0 with symmetry is DISCOURAGED, use correct ibrav instead
     tcpu =  15611.8    self-consistency for image   4
     Message from routine setup:
     using ibrav=0 with symmetry is DISCOURAGED, use correct ibrav instead
     tcpu =  15629.5    self-consistency for image   5
     Message from routine setup:
     using ibrav=0 with symmetry is DISCOURAGED, use correct ibrav instead

     activation energy (->) =   2.831430 eV
     activation energy (<-) =   1.047732 eV

     image        energy (eV)        error (eV/A)        frozen

         1    -133596.8270264            0.434212            F
         2    -133597.0250323            0.748068            F
         3    -133595.7940505            0.838952            F
         4    -133593.9955966            1.602747            F
         5    -133595.0433283            0.499428            F

     path length          =  8.683 bohr
     inter-image distance =  2.171 bohr

     ------------------------------ iteration 117 ------------------------------

     tcpu =  15646.3    self-consistency for image   1
     Message from routine setup:
     using ibrav=0 with symmetry is DISCOURAGED, use correct ibrav instead
     tcpu =  15662.5    self-consistency for image   2
     Message from routine setup:
     using ibrav=0 with symmetry is DISCOURAGED, use correct ibrav instead
     tcpu =  15680.1    self-consistency for image   3
     Message from routine setup:
     using ibrav=0 with symmetry is DISCOURAGED, use correct ibrav instead
     tcpu =  15697.3    self-consistency for image   4
     Message from routine setup:
     using ibrav=0 with symmetry is DISCOURAGED, use correct ibrav instead
     tcpu =  15714.9    self-consistency for image   5
     Message from routine setup:
     using ibrav=0 with symmetry is DISCOURAGED, use correct ibrav instead

     activation energy (->) =   2.830871 eV
     activation energy (<-) =   1.047285 eV

     image        energy (eV)        error (eV/A)        frozen

         1    -133596.8272347            0.432916            F
         2    -133597.0253779            0.748058            F
         3    -133595.7945020            0.839224            F
         4    -133593.9963634            1.590832            F
         5    -133595.0436479            0.497726            F

     path length          =  8.683 bohr
     inter-image distance =  2.171 bohr

     ------------------------------ iteration 118 ------------------------------

     tcpu =  15736.6    self-consistency for image   1
     Message from routine setup:
     using ibrav=0 with symmetry is DISCOURAGED, use correct ibrav instead
     tcpu =  15752.3    self-consistency for image   2
     Message from routine setup:
     using ibrav=0 with symmetry is DISCOURAGED, use correct ibrav instead
     tcpu =  15769.3    self-consistency for image   3
     Message from routine setup:
     using ibrav=0 with symmetry is DISCOURAGED, use correct ibrav instead
     tcpu =  15786.7    self-consistency for image   4
     Message from routine setup:
     using ibrav=0 with symmetry is DISCOURAGED, use correct ibrav instead
     tcpu =  15804.3    self-consistency for image   5
     Message from routine setup:
     using ibrav=0 with symmetry is DISCOURAGED, use correct ibrav instead

     activation energy (->) =   2.829760 eV
     activation energy (<-) =   1.046377 eV

     image        energy (eV)        error (eV/A)        frozen

         1    -133596.8276489            0.428990            F
         2    -133597.0260612            0.747019            F
         3    -133595.7954030            0.837095            F
         4    -133593.9978885            1.564758            F
         5    -133595.0442653            0.492181            F

     path length          =  8.684 bohr
     inter-image distance =  2.171 bohr

     ------------------------------ iteration 119 ------------------------------

     tcpu =  15820.9    self-consistency for image   1
     Message from routine setup:
     using ibrav=0 with symmetry is DISCOURAGED, use correct ibrav instead
     tcpu =  15838.1    self-consistency for image   2
     Message from routine setup:
     using ibrav=0 with symmetry is DISCOURAGED, use correct ibrav instead
     tcpu =  15855.4    self-consistency for image   3
     Message from routine setup:
     using ibrav=0 with symmetry is DISCOURAGED, use correct ibrav instead
     tcpu =  15873.4    self-consistency for image   4
     Message from routine setup:
     using ibrav=0 with symmetry is DISCOURAGED, use correct ibrav instead
     tcpu =  15893.6    self-consistency for image   5
     Message from routine setup:
     using ibrav=0 with symmetry is DISCOURAGED, use correct ibrav instead

     activation energy (->) =   2.826481 eV
     activation energy (<-) =   1.043712 eV

     image        energy (eV)        error (eV/A)        frozen

         1    -133596.8288576            0.415027            F
         2    -133597.0280756            0.744107            F
         3    -133595.7980503            0.839191            F
         4    -133594.0023769            1.496783            F
         5    -133595.0460888            0.472914            F

     path length          =  8.685 bohr
     inter-image distance =  2.171 bohr

     ------------------------------ iteration 120 ------------------------------

     tcpu =  15914.9    self-consistency for image   1
     Message from routine setup:
     using ibrav=0 with symmetry is DISCOURAGED, use correct ibrav instead
     tcpu =  15945.1    self-consistency for image   2
     Message from routine setup:
     using ibrav=0 with symmetry is DISCOURAGED, use correct ibrav instead
     tcpu =  15976.6    self-consistency for image   3
     Message from routine setup:
     using ibrav=0 with symmetry is DISCOURAGED, use correct ibrav instead
     tcpu =  16009.3    self-consistency for image   4
     Message from routine setup:
     using ibrav=0 with symmetry is DISCOURAGED, use correct ibrav instead
     tcpu =  16042.0    self-consistency for image   5
     Message from routine setup:
     using ibrav=0 with symmetry is DISCOURAGED, use correct ibrav instead

     activation energy (->) =   2.814564 eV
     activation energy (<-) =   1.034103 eV

     image        energy (eV)        error (eV/A)        frozen

         1    -133596.8336637            0.433666            F
         2    -133597.0359404            0.731800            F
         3    -133595.8084596            0.806879            F
         4    -133594.0190997            1.513511            F
         5    -133595.0532030            0.497692            F

     path length          =  8.692 bohr
     inter-image distance =  2.173 bohr

     ------------------------------ iteration 121 ------------------------------

     tcpu =  16070.2    self-consistency for image   1
     Message from routine setup:
     using ibrav=0 with symmetry is DISCOURAGED, use correct ibrav instead
     tcpu =  16101.9    self-consistency for image   2
     Message from routine setup:
     using ibrav=0 with symmetry is DISCOURAGED, use correct ibrav instead
     tcpu =  16137.4    self-consistency for image   3
     Message from routine setup:
     using ibrav=0 with symmetry is DISCOURAGED, use correct ibrav instead
     tcpu =  16168.4    self-consistency for image   4
     Message from routine setup:
     using ibrav=0 with symmetry is DISCOURAGED, use correct ibrav instead
     tcpu =  16204.5    self-consistency for image   5
     Message from routine setup:
     using ibrav=0 with symmetry is DISCOURAGED, use correct ibrav instead

     activation energy (->) =   2.790171 eV
     activation energy (<-) =   1.015330 eV

     image        energy (eV)        error (eV/A)        frozen

         1    -133596.8450981            0.429147            F
         2    -133597.0547121            0.702768            F
         3    -133595.8331935            0.775010            F
         4    -133594.0549275            3.212886            F
         5    -133595.0702575            0.490327            F

     path length          =  8.710 bohr
     inter-image distance =  2.177 bohr

     ------------------------------ iteration 122 ------------------------------

     tcpu =  16245.9    self-consistency for image   1
     Message from routine setup:
     using ibrav=0 with symmetry is DISCOURAGED, use correct ibrav instead
     tcpu =  16281.0    self-consistency for image   2
     Message from routine setup:
     using ibrav=0 with symmetry is DISCOURAGED, use correct ibrav instead
     tcpu =  16316.0    self-consistency for image   3
     Message from routine setup:
     using ibrav=0 with symmetry is DISCOURAGED, use correct ibrav instead
     tcpu =  16349.6    self-consistency for image   4
     Message from routine setup:
     using ibrav=0 with symmetry is DISCOURAGED, use correct ibrav instead
     tcpu =  16385.4    self-consistency for image   5
     Message from routine setup:
     using ibrav=0 with symmetry is DISCOURAGED, use correct ibrav instead
